
# Box and units  (use LJ units and periodic boundaries)
units		real
# so:
#    mass = grams/mole		# same in gromacs
#    distance = Angstroms	# nm in gromacs
#    time = femtoseconds	# ps in gromacs
#    energy = Kcal/mole		# kcal/mol in gromacs
#    velocity = Angstroms/femtosecond	# ...
#    force = Kcal/mole-Angstrom	# ...
#    temperature = Kelvin	# same in gromacs
#    pressure = atmospheres	# same in gromacs
#    dynamic viscosity = Poise	# no idea
dimension	3
atom_style	molecular
boundary	p p f # boundary fixed along z

# Pair interactions require lists of neighbours to be calculated
neighbor	5.0 nsq
neigh_modify	every 1 delay 10 check yes

# define interactions
pair_style	lj12106/cut  30.0 # same as in md_sample.mdp from the smog-model web-tool
pair_modify	shift yes
bond_style	harmonic
angle_style	harmonic
dihedral_style	charmm
special_bonds	lj 0.0 0.0 0.0 angle yes dihedral yes # 3 exclusions

# READ "start" data file
read_data	data.input_wall
  orthogonal box = (-200 -200 -200) to (200 200 200)
  1 by 2 by 2 MPI processor grid
  reading atoms ...
  209 atoms
  scanning bonds ...
  2 = max bonds/atom
  scanning angles ...
  3 = max angles/atom
  scanning dihedrals ...
  8 = max dihedrals/atom
  reading bonds ...
  207 bonds
  reading angles ...
  306 angles
  reading dihedrals ...
  708 dihedrals
  3 = max # of 1-2 neighbors
  4 = max # of 1-3 neighbors
  8 = max # of 1-4 neighbors
  612 = # of 1-3 neighbors before angle trim
  612 = # of 1-3 neighbors after angle trim
  1108 = # of 1-4 neighbors before dihedral trim
  708 = # of 1-4 neighbors after dihedral trim
  11 = max # of special neighbors

# define coeffs
include         settings.param
pair_coeff 1 1 0.000000e+00 0.000000e+00 4.009755e+04 # CA1-CA1 type=non-native eps=0.002390 sigma=4.000000
pair_coeff 1 2 0.000000e+00 0.000000e+00 4.009755e+04 # CA1-CA2 type=non-native eps=0.002390 sigma=4.000000
pair_coeff 1 3 0.000000e+00 0.000000e+00 2.286802e+04 # CA1-SC2 type=non-native eps=0.002390 sigma=3.817121
pair_coeff 1 4 0.000000e+00 0.000000e+00 4.009755e+04 # CA1-CA3 type=non-native eps=0.002390 sigma=4.000000
pair_coeff 1 5 0.000000e+00 0.000000e+00 4.009755e+04 # CA1-SC3 type=non-native eps=0.002390 sigma=4.000000
pair_coeff 1 6 0.000000e+00 0.000000e+00 4.009755e+04 # CA1-CA4 type=non-native eps=0.002390 sigma=4.000000
pair_coeff 1 7 0.000000e+00 0.000000e+00 4.009755e+04 # CA1-SC4 type=non-native eps=0.002390 sigma=4.000000
pair_coeff 1 8 0.000000e+00 0.000000e+00 4.009755e+04 # CA1-CA5 type=non-native eps=0.002390 sigma=4.000000
pair_coeff 1 9 0.000000e+00 0.000000e+00 3.442571e+03 # CA1-SC5 type=non-native eps=0.002390 sigma=3.259921
pair_coeff 1 10 0.000000e+00 0.000000e+00 4.009755e+04 # CA1-CA6 type=non-native eps=0.002390 sigma=4.000000
pair_coeff 1 11 0.000000e+00 0.000000e+00 1.085818e+04 # CA1-SC6 type=non-native eps=0.002390 sigma=3.587401
pair_coeff 1 12 0.000000e+00 0.000000e+00 4.009755e+04 # CA1-CA7 type=non-native eps=0.002390 sigma=4.000000
pair_coeff 1 13 0.000000e+00 0.000000e+00 2.286802e+04 # CA1-SC7 type=non-native eps=0.002390 sigma=3.817121
pair_coeff 1 14 0.000000e+00 0.000000e+00 4.009755e+04 # CA1-CA8 type=non-native eps=0.002390 sigma=4.000000
pair_coeff 1 15 0.000000e+00 0.000000e+00 6.317440e+04 # CA1-SC8 type=non-native eps=0.002390 sigma=4.154435
pair_coeff 1 16 0.000000e+00 0.000000e+00 4.009755e+04 # CA1-CA9 type=non-native eps=0.002390 sigma=4.000000
pair_coeff 1 17 0.000000e+00 0.000000e+00 6.317440e+04 # CA1-SC9 type=non-native eps=0.002390 sigma=4.154435
pair_coeff 1 18 0.000000e+00 0.000000e+00 4.009755e+04 # CA1-CA10 type=non-native eps=0.002390 sigma=4.000000
pair_coeff 1 19 0.000000e+00 0.000000e+00 6.317440e+04 # CA1-SC10 type=non-native eps=0.002390 sigma=4.154435
pair_coeff 1 20 0.000000e+00 0.000000e+00 4.009755e+04 # CA1-CA11 type=non-native eps=0.002390 sigma=4.000000
pair_coeff 1 21 0.000000e+00 0.000000e+00 4.009755e+04 # CA1-CA12 type=non-native eps=0.002390 sigma=4.000000
pair_coeff 1 22 0.000000e+00 0.000000e+00 2.286802e+04 # CA1-SC12 type=non-native eps=0.002390 sigma=3.817121
pair_coeff 1 23 0.000000e+00 0.000000e+00 4.009755e+04 # CA1-CA13 type=non-native eps=0.002390 sigma=4.000000
pair_coeff 1 24 0.000000e+00 0.000000e+00 1.293687e+05 # CA1-SC13 type=non-native eps=0.002390 sigma=4.410142
pair_coeff 1 25 0.000000e+00 0.000000e+00 4.009755e+04 # CA1-CA14 type=non-native eps=0.002390 sigma=4.000000
pair_coeff 1 26 0.000000e+00 0.000000e+00 1.293687e+05 # CA1-SC14 type=non-native eps=0.002390 sigma=4.410142
pair_coeff 1 27 0.000000e+00 0.000000e+00 4.009755e+04 # CA1-CA15 type=non-native eps=0.002390 sigma=4.000000
pair_coeff 1 28 0.000000e+00 0.000000e+00 3.442571e+03 # CA1-SC15 type=non-native eps=0.002390 sigma=3.259921
pair_coeff 1 29 0.000000e+00 0.000000e+00 4.009755e+04 # CA1-CA16 type=non-native eps=0.002390 sigma=4.000000
pair_coeff 1 30 0.000000e+00 0.000000e+00 4.009755e+04 # CA1-SC16 type=non-native eps=0.002390 sigma=4.000000
pair_coeff 1 31 0.000000e+00 0.000000e+00 4.009755e+04 # CA1-CA17 type=non-native eps=0.002390 sigma=4.000000
pair_coeff 1 32 0.000000e+00 0.000000e+00 4.009755e+04 # CA1-SC17 type=non-native eps=0.002390 sigma=4.000000
pair_coeff 1 33 0.000000e+00 0.000000e+00 4.009755e+04 # CA1-CA18 type=non-native eps=0.002390 sigma=4.000000
pair_coeff 1 34 0.000000e+00 0.000000e+00 1.293687e+05 # CA1-SC18 type=non-native eps=0.002390 sigma=4.410142
pair_coeff 1 35 0.000000e+00 0.000000e+00 4.009755e+04 # CA1-CA19 type=non-native eps=0.002390 sigma=4.000000
pair_coeff 1 36 0.000000e+00 0.000000e+00 3.442571e+03 # CA1-SC19 type=non-native eps=0.002390 sigma=3.259921
pair_coeff 1 37 0.000000e+00 0.000000e+00 4.009755e+04 # CA1-CA20 type=non-native eps=0.002390 sigma=4.000000
pair_coeff 1 38 0.000000e+00 0.000000e+00 2.286802e+04 # CA1-SC20 type=non-native eps=0.002390 sigma=3.817121
pair_coeff 1 39 0.000000e+00 0.000000e+00 4.009755e+04 # CA1-CA21 type=non-native eps=0.002390 sigma=4.000000
pair_coeff 1 40 0.000000e+00 0.000000e+00 4.009755e+04 # CA1-CA22 type=non-native eps=0.002390 sigma=4.000000
pair_coeff 1 41 0.000000e+00 0.000000e+00 6.317440e+04 # CA1-SC22 type=non-native eps=0.002390 sigma=4.154435
pair_coeff 1 42 0.000000e+00 0.000000e+00 4.009755e+04 # CA1-CA23 type=non-native eps=0.002390 sigma=4.000000
pair_coeff 1 43 0.000000e+00 0.000000e+00 1.737309e+05 # CA1-SC23 type=non-native eps=0.002390 sigma=4.519842
pair_coeff 1 44 0.000000e+00 0.000000e+00 4.009755e+04 # CA1-CA24 type=non-native eps=0.002390 sigma=4.000000
pair_coeff 1 45 0.000000e+00 0.000000e+00 4.009755e+04 # CA1-SC24 type=non-native eps=0.002390 sigma=4.000000
pair_coeff 1 46 0.000000e+00 0.000000e+00 4.009755e+04 # CA1-CA25 type=non-native eps=0.002390 sigma=4.000000
pair_coeff 1 47 0.000000e+00 0.000000e+00 6.317440e+04 # CA1-SC25 type=non-native eps=0.002390 sigma=4.154435
pair_coeff 1 48 0.000000e+00 0.000000e+00 4.009755e+04 # CA1-CA26 type=non-native eps=0.002390 sigma=4.000000
pair_coeff 1 49 0.000000e+00 0.000000e+00 3.442571e+03 # CA1-SC26 type=non-native eps=0.002390 sigma=3.259921
pair_coeff 1 50 0.000000e+00 0.000000e+00 4.009755e+04 # CA1-CA27 type=non-native eps=0.002390 sigma=4.000000
pair_coeff 1 51 0.000000e+00 0.000000e+00 1.085818e+04 # CA1-SC27 type=non-native eps=0.002390 sigma=3.587401
pair_coeff 1 52 0.000000e+00 0.000000e+00 4.009755e+04 # CA1-CA28 type=non-native eps=0.002390 sigma=4.000000
pair_coeff 1 53 0.000000e+00 0.000000e+00 4.009755e+04 # CA1-SC28 type=non-native eps=0.002390 sigma=4.000000
pair_coeff 1 54 0.000000e+00 0.000000e+00 4.009755e+04 # CA1-CA29 type=non-native eps=0.002390 sigma=4.000000
pair_coeff 1 55 0.000000e+00 0.000000e+00 4.009755e+04 # CA1-SC29 type=non-native eps=0.002390 sigma=4.000000
pair_coeff 1 56 0.000000e+00 0.000000e+00 4.009755e+04 # CA1-CA30 type=non-native eps=0.002390 sigma=4.000000
pair_coeff 1 57 0.000000e+00 0.000000e+00 4.009755e+04 # CA1-SC30 type=non-native eps=0.002390 sigma=4.000000
pair_coeff 1 58 0.000000e+00 0.000000e+00 4.009755e+04 # CA1-CA31 type=non-native eps=0.002390 sigma=4.000000
pair_coeff 1 59 0.000000e+00 0.000000e+00 1.737309e+05 # CA1-SC31 type=non-native eps=0.002390 sigma=4.519842
pair_coeff 1 60 0.000000e+00 0.000000e+00 4.009755e+04 # CA1-CA32 type=non-native eps=0.002390 sigma=4.000000
pair_coeff 1 61 0.000000e+00 0.000000e+00 9.272377e+04 # CA1-SC32 type=non-native eps=0.002390 sigma=4.289428
pair_coeff 1 62 0.000000e+00 0.000000e+00 4.009755e+04 # CA1-CA33 type=non-native eps=0.002390 sigma=4.000000
pair_coeff 1 63 0.000000e+00 0.000000e+00 1.085818e+04 # CA1-SC33 type=non-native eps=0.002390 sigma=3.587401
pair_coeff 1 64 0.000000e+00 0.000000e+00 4.009755e+04 # CA1-CA34 type=non-native eps=0.002390 sigma=4.000000
pair_coeff 1 65 0.000000e+00 0.000000e+00 1.293687e+05 # CA1-SC34 type=non-native eps=0.002390 sigma=4.410142
pair_coeff 1 66 0.000000e+00 0.000000e+00 4.009755e+04 # CA1-CA35 type=non-native eps=0.002390 sigma=4.000000
pair_coeff 1 67 0.000000e+00 0.000000e+00 3.442571e+03 # CA1-SC35 type=non-native eps=0.002390 sigma=3.259921
pair_coeff 1 68 0.000000e+00 0.000000e+00 4.009755e+04 # CA1-CA36 type=non-native eps=0.002390 sigma=4.000000
pair_coeff 1 69 0.000000e+00 0.000000e+00 4.009755e+04 # CA1-SC36 type=non-native eps=0.002390 sigma=4.000000
pair_coeff 1 70 0.000000e+00 0.000000e+00 4.009755e+04 # CA1-CA37 type=non-native eps=0.002390 sigma=4.000000
pair_coeff 1 71 0.000000e+00 0.000000e+00 6.317440e+04 # CA1-SC37 type=non-native eps=0.002390 sigma=4.154435
pair_coeff 1 72 0.000000e+00 0.000000e+00 4.009755e+04 # CA1-CA38 type=non-native eps=0.002390 sigma=4.000000
pair_coeff 1 73 0.000000e+00 0.000000e+00 2.286802e+04 # CA1-SC38 type=non-native eps=0.002390 sigma=3.817121
pair_coeff 1 74 0.000000e+00 0.000000e+00 4.009755e+04 # CA1-CA39 type=non-native eps=0.002390 sigma=4.000000
pair_coeff 1 75 0.000000e+00 0.000000e+00 2.286802e+04 # CA1-SC39 type=non-native eps=0.002390 sigma=3.817121
pair_coeff 1 76 0.000000e+00 0.000000e+00 4.009755e+04 # CA1-CA40 type=non-native eps=0.002390 sigma=4.000000
pair_coeff 1 77 0.000000e+00 0.000000e+00 1.293687e+05 # CA1-SC40 type=non-native eps=0.002390 sigma=4.410142
pair_coeff 1 78 0.000000e+00 0.000000e+00 4.009755e+04 # CA1-CA41 type=non-native eps=0.002390 sigma=4.000000
pair_coeff 1 79 0.000000e+00 0.000000e+00 3.442571e+03 # CA1-SC41 type=non-native eps=0.002390 sigma=3.259921
pair_coeff 1 80 0.000000e+00 0.000000e+00 4.009755e+04 # CA1-CA42 type=non-native eps=0.002390 sigma=4.000000
pair_coeff 1 81 0.000000e+00 0.000000e+00 1.293687e+05 # CA1-SC42 type=non-native eps=0.002390 sigma=4.410142
pair_coeff 1 82 -1.682542e+05 0.000000e+00 2.961242e+10 # CA1-CA43 type=native eps=0.239000 sigma=8.402780
pair_coeff 1 83 0.000000e+00 0.000000e+00 6.317440e+04 # CA1-SC43 type=non-native eps=0.002390 sigma=4.154435
pair_coeff 1 84 -5.400495e+03 0.000000e+00 1.830461e+08 # CA1-CA44 type=native eps=0.039833 sigma=6.385469
pair_coeff 1 85 -2.348902e+03 0.000000e+00 6.925535e+06 # CA1-SC44 type=native eps=0.199167 sigma=4.250464
pair_coeff 1 86 -2.045708e+05 0.000000e+00 4.377533e+10 # CA1-CA45 type=native eps=0.239000 sigma=8.680991
pair_coeff 1 87 0.000000e+00 0.000000e+00 4.009755e+04 # CA1-SC45 type=non-native eps=0.002390 sigma=4.000000
pair_coeff 1 88 0.000000e+00 0.000000e+00 4.009755e+04 # CA1-CA46 type=non-native eps=0.002390 sigma=4.000000
pair_coeff 1 89 0.000000e+00 0.000000e+00 2.286802e+04 # CA1-SC46 type=non-native eps=0.002390 sigma=3.817121
pair_coeff 1 90 0.000000e+00 0.000000e+00 4.009755e+04 # CA1-CA47 type=non-native eps=0.002390 sigma=4.000000
pair_coeff 1 91 0.000000e+00 0.000000e+00 3.442571e+03 # CA1-SC47 type=non-native eps=0.002390 sigma=3.259921
pair_coeff 1 92 0.000000e+00 0.000000e+00 4.009755e+04 # CA1-CA48 type=non-native eps=0.002390 sigma=4.000000
pair_coeff 1 93 0.000000e+00 0.000000e+00 4.009755e+04 # CA1-CA49 type=non-native eps=0.002390 sigma=4.000000
pair_coeff 1 94 0.000000e+00 0.000000e+00 2.286802e+04 # CA1-SC49 type=non-native eps=0.002390 sigma=3.817121
pair_coeff 1 95 0.000000e+00 0.000000e+00 4.009755e+04 # CA1-CA50 type=non-native eps=0.002390 sigma=4.000000
pair_coeff 1 96 0.000000e+00 0.000000e+00 4.009755e+04 # CA1-SC50 type=non-native eps=0.002390 sigma=4.000000
pair_coeff 1 97 0.000000e+00 0.000000e+00 4.009755e+04 # CA1-CA51 type=non-native eps=0.002390 sigma=4.000000
pair_coeff 1 98 0.000000e+00 0.000000e+00 1.737309e+05 # CA1-SC51 type=non-native eps=0.002390 sigma=4.519842
pair_coeff 1 99 0.000000e+00 0.000000e+00 4.009755e+04 # CA1-CA52 type=non-native eps=0.002390 sigma=4.000000
pair_coeff 1 100 0.000000e+00 0.000000e+00 1.293687e+05 # CA1-SC52 type=non-native eps=0.002390 sigma=4.410142
pair_coeff 1 101 0.000000e+00 0.000000e+00 4.009755e+04 # CA1-CA53 type=non-native eps=0.002390 sigma=4.000000
pair_coeff 1 102 0.000000e+00 0.000000e+00 4.009755e+04 # CA1-SC53 type=non-native eps=0.002390 sigma=4.000000
pair_coeff 1 103 0.000000e+00 0.000000e+00 4.009755e+04 # CA1-CA54 type=non-native eps=0.002390 sigma=4.000000
pair_coeff 1 104 0.000000e+00 0.000000e+00 4.009755e+04 # CA1-SC54 type=non-native eps=0.002390 sigma=4.000000
pair_coeff 1 105 0.000000e+00 0.000000e+00 4.009755e+04 # CA1-CA55 type=non-native eps=0.002390 sigma=4.000000
pair_coeff 1 106 0.000000e+00 0.000000e+00 2.286802e+04 # CA1-SC55 type=non-native eps=0.002390 sigma=3.817121
pair_coeff 1 107 0.000000e+00 0.000000e+00 4.009755e+04 # CA1-CA56 type=non-native eps=0.002390 sigma=4.000000
pair_coeff 1 108 0.000000e+00 0.000000e+00 6.317440e+04 # CA1-SC56 type=non-native eps=0.002390 sigma=4.154435
pair_coeff 1 109 0.000000e+00 0.000000e+00 4.009755e+04 # CA1-CA57 type=non-native eps=0.002390 sigma=4.000000
pair_coeff 1 110 0.000000e+00 0.000000e+00 4.009755e+04 # CA1-SC57 type=non-native eps=0.002390 sigma=4.000000
pair_coeff 1 111 0.000000e+00 0.000000e+00 4.009755e+04 # CA1-CA58 type=non-native eps=0.002390 sigma=4.000000
pair_coeff 1 112 0.000000e+00 0.000000e+00 4.009755e+04 # CA1-CA59 type=non-native eps=0.002390 sigma=4.000000
pair_coeff 1 113 0.000000e+00 0.000000e+00 1.293687e+05 # CA1-SC59 type=non-native eps=0.002390 sigma=4.410142
pair_coeff 1 114 0.000000e+00 0.000000e+00 4.009755e+04 # CA1-CA60 type=non-native eps=0.002390 sigma=4.000000
pair_coeff 1 115 0.000000e+00 0.000000e+00 2.286802e+04 # CA1-SC60 type=non-native eps=0.002390 sigma=3.817121
pair_coeff 1 116 0.000000e+00 0.000000e+00 4.009755e+04 # CA1-CA61 type=non-native eps=0.002390 sigma=4.000000
pair_coeff 1 117 0.000000e+00 0.000000e+00 2.286802e+04 # CA1-SC61 type=non-native eps=0.002390 sigma=3.817121
pair_coeff 1 118 0.000000e+00 0.000000e+00 4.009755e+04 # CA1-CA62 type=non-native eps=0.002390 sigma=4.000000
pair_coeff 1 119 0.000000e+00 0.000000e+00 1.085818e+04 # CA1-SC62 type=non-native eps=0.002390 sigma=3.587401
pair_coeff 1 120 0.000000e+00 0.000000e+00 4.009755e+04 # CA1-CA63 type=non-native eps=0.002390 sigma=4.000000
pair_coeff 1 121 0.000000e+00 0.000000e+00 2.286802e+04 # CA1-SC63 type=non-native eps=0.002390 sigma=3.817121
pair_coeff 1 122 0.000000e+00 0.000000e+00 4.009755e+04 # CA1-CA64 type=non-native eps=0.002390 sigma=4.000000
pair_coeff 1 123 0.000000e+00 0.000000e+00 6.317440e+04 # CA1-SC64 type=non-native eps=0.002390 sigma=4.154435
pair_coeff 1 124 0.000000e+00 0.000000e+00 4.009755e+04 # CA1-CA65 type=non-native eps=0.002390 sigma=4.000000
pair_coeff 1 125 0.000000e+00 0.000000e+00 2.286802e+04 # CA1-SC65 type=non-native eps=0.002390 sigma=3.817121
pair_coeff 1 126 0.000000e+00 0.000000e+00 4.009755e+04 # CA1-CA66 type=non-native eps=0.002390 sigma=4.000000
pair_coeff 1 127 0.000000e+00 0.000000e+00 9.272377e+04 # CA1-SC66 type=non-native eps=0.002390 sigma=4.289428
pair_coeff 1 128 0.000000e+00 0.000000e+00 4.009755e+04 # CA1-CA67 type=non-native eps=0.002390 sigma=4.000000
pair_coeff 1 129 0.000000e+00 0.000000e+00 4.009755e+04 # CA1-SC67 type=non-native eps=0.002390 sigma=4.000000
pair_coeff 1 130 0.000000e+00 0.000000e+00 4.009755e+04 # CA1-CA68 type=non-native eps=0.002390 sigma=4.000000
pair_coeff 1 131 0.000000e+00 0.000000e+00 4.009755e+04 # CA1-SC68 type=non-native eps=0.002390 sigma=4.000000
pair_coeff 1 132 0.000000e+00 0.000000e+00 4.009755e+04 # CA1-CA69 type=non-native eps=0.002390 sigma=4.000000
pair_coeff 1 133 0.000000e+00 0.000000e+00 4.009755e+04 # CA1-SC69 type=non-native eps=0.002390 sigma=4.000000
pair_coeff 1 134 0.000000e+00 0.000000e+00 4.009755e+04 # CA1-CA70 type=non-native eps=0.002390 sigma=4.000000
pair_coeff 1 135 0.000000e+00 0.000000e+00 1.085818e+04 # CA1-SC70 type=non-native eps=0.002390 sigma=3.587401
pair_coeff 1 136 0.000000e+00 0.000000e+00 4.009755e+04 # CA1-CA71 type=non-native eps=0.002390 sigma=4.000000
pair_coeff 1 137 0.000000e+00 0.000000e+00 2.286802e+04 # CA1-SC71 type=non-native eps=0.002390 sigma=3.817121
pair_coeff 1 138 0.000000e+00 0.000000e+00 4.009755e+04 # CA1-CA72 type=non-native eps=0.002390 sigma=4.000000
pair_coeff 1 139 0.000000e+00 0.000000e+00 1.293687e+05 # CA1-SC72 type=non-native eps=0.002390 sigma=4.410142
pair_coeff 1 140 0.000000e+00 0.000000e+00 4.009755e+04 # CA1-CA73 type=non-native eps=0.002390 sigma=4.000000
pair_coeff 1 141 0.000000e+00 0.000000e+00 9.272377e+04 # CA1-SC73 type=non-native eps=0.002390 sigma=4.289428
pair_coeff 1 142 0.000000e+00 0.000000e+00 4.009755e+04 # CA1-CA74 type=non-native eps=0.002390 sigma=4.000000
pair_coeff 1 143 0.000000e+00 0.000000e+00 4.009755e+04 # CA1-SC74 type=non-native eps=0.002390 sigma=4.000000
pair_coeff 1 144 0.000000e+00 0.000000e+00 4.009755e+04 # CA1-CA75 type=non-native eps=0.002390 sigma=4.000000
pair_coeff 1 145 0.000000e+00 0.000000e+00 6.317440e+04 # CA1-SC75 type=non-native eps=0.002390 sigma=4.154435
pair_coeff 1 146 0.000000e+00 0.000000e+00 4.009755e+04 # CA1-CA76 type=non-native eps=0.002390 sigma=4.000000
pair_coeff 1 147 0.000000e+00 0.000000e+00 2.286802e+04 # CA1-SC76 type=non-native eps=0.002390 sigma=3.817121
pair_coeff 1 148 0.000000e+00 0.000000e+00 4.009755e+04 # CA1-CA77 type=non-native eps=0.002390 sigma=4.000000
pair_coeff 1 149 0.000000e+00 0.000000e+00 9.272377e+04 # CA1-SC77 type=non-native eps=0.002390 sigma=4.289428
pair_coeff 1 150 0.000000e+00 0.000000e+00 4.009755e+04 # CA1-CA78 type=non-native eps=0.002390 sigma=4.000000
pair_coeff 1 151 0.000000e+00 0.000000e+00 4.009755e+04 # CA1-SC78 type=non-native eps=0.002390 sigma=4.000000
pair_coeff 1 152 0.000000e+00 0.000000e+00 4.009755e+04 # CA1-CA79 type=non-native eps=0.002390 sigma=4.000000
pair_coeff 1 153 0.000000e+00 0.000000e+00 6.317440e+04 # CA1-SC79 type=non-native eps=0.002390 sigma=4.154435
pair_coeff 1 154 0.000000e+00 0.000000e+00 4.009755e+04 # CA1-CA80 type=non-native eps=0.002390 sigma=4.000000
pair_coeff 1 155 0.000000e+00 0.000000e+00 1.293687e+05 # CA1-SC80 type=non-native eps=0.002390 sigma=4.410142
pair_coeff 1 156 0.000000e+00 0.000000e+00 4.009755e+04 # CA1-CA81 type=non-native eps=0.002390 sigma=4.000000
pair_coeff 1 157 0.000000e+00 0.000000e+00 6.317440e+04 # CA1-SC81 type=non-native eps=0.002390 sigma=4.154435
pair_coeff 1 158 0.000000e+00 0.000000e+00 4.009755e+04 # CA1-CA82 type=non-native eps=0.002390 sigma=4.000000
pair_coeff 1 159 0.000000e+00 0.000000e+00 3.442571e+03 # CA1-SC82 type=non-native eps=0.002390 sigma=3.259921
pair_coeff 1 160 0.000000e+00 0.000000e+00 4.009755e+04 # CA1-CA83 type=non-native eps=0.002390 sigma=4.000000
pair_coeff 1 161 0.000000e+00 0.000000e+00 1.293687e+05 # CA1-SC83 type=non-native eps=0.002390 sigma=4.410142
pair_coeff 1 162 0.000000e+00 0.000000e+00 4.009755e+04 # CA1-CA84 type=non-native eps=0.002390 sigma=4.000000
pair_coeff 1 163 0.000000e+00 0.000000e+00 1.085818e+04 # CA1-SC84 type=non-native eps=0.002390 sigma=3.587401
pair_coeff 1 164 0.000000e+00 0.000000e+00 4.009755e+04 # CA1-CA85 type=non-native eps=0.002390 sigma=4.000000
pair_coeff 1 165 0.000000e+00 0.000000e+00 1.085818e+04 # CA1-SC85 type=non-native eps=0.002390 sigma=3.587401
pair_coeff 1 166 0.000000e+00 0.000000e+00 4.009755e+04 # CA1-CA86 type=non-native eps=0.002390 sigma=4.000000
pair_coeff 1 167 0.000000e+00 0.000000e+00 1.293687e+05 # CA1-SC86 type=non-native eps=0.002390 sigma=4.410142
pair_coeff 1 168 0.000000e+00 0.000000e+00 4.009755e+04 # CA1-CA87 type=non-native eps=0.002390 sigma=4.000000
pair_coeff 1 169 0.000000e+00 0.000000e+00 6.317440e+04 # CA1-SC87 type=non-native eps=0.002390 sigma=4.154435
pair_coeff 1 170 0.000000e+00 0.000000e+00 4.009755e+04 # CA1-CA88 type=non-native eps=0.002390 sigma=4.000000
pair_coeff 1 171 0.000000e+00 0.000000e+00 4.009755e+04 # CA1-SC88 type=non-native eps=0.002390 sigma=4.000000
pair_coeff 1 172 0.000000e+00 0.000000e+00 4.009755e+04 # CA1-CA89 type=non-native eps=0.002390 sigma=4.000000
pair_coeff 1 173 0.000000e+00 0.000000e+00 1.737309e+05 # CA1-SC89 type=non-native eps=0.002390 sigma=4.519842
pair_coeff 1 174 0.000000e+00 0.000000e+00 4.009755e+04 # CA1-CA90 type=non-native eps=0.002390 sigma=4.000000
pair_coeff 1 175 0.000000e+00 0.000000e+00 3.442571e+03 # CA1-SC90 type=non-native eps=0.002390 sigma=3.259921
pair_coeff 1 176 0.000000e+00 0.000000e+00 4.009755e+04 # CA1-CA91 type=non-native eps=0.002390 sigma=4.000000
pair_coeff 1 177 0.000000e+00 0.000000e+00 2.286802e+04 # CA1-SC91 type=non-native eps=0.002390 sigma=3.817121
pair_coeff 1 178 0.000000e+00 0.000000e+00 4.009755e+04 # CA1-CA92 type=non-native eps=0.002390 sigma=4.000000
pair_coeff 1 179 0.000000e+00 0.000000e+00 2.286802e+04 # CA1-SC92 type=non-native eps=0.002390 sigma=3.817121
pair_coeff 1 180 0.000000e+00 0.000000e+00 4.009755e+04 # CA1-CA93 type=non-native eps=0.002390 sigma=4.000000
pair_coeff 1 181 0.000000e+00 0.000000e+00 2.880942e+05 # CA1-SC93 type=non-native eps=0.002390 sigma=4.714418
pair_coeff 1 182 0.000000e+00 0.000000e+00 4.009755e+04 # CA1-CA94 type=non-native eps=0.002390 sigma=4.000000
pair_coeff 1 183 0.000000e+00 0.000000e+00 6.317440e+04 # CA1-SC94 type=non-native eps=0.002390 sigma=4.154435
pair_coeff 1 184 0.000000e+00 0.000000e+00 4.009755e+04 # CA1-CA95 type=non-native eps=0.002390 sigma=4.000000
pair_coeff 1 185 0.000000e+00 0.000000e+00 4.009755e+04 # CA1-CA96 type=non-native eps=0.002390 sigma=4.000000
pair_coeff 1 186 0.000000e+00 0.000000e+00 2.286802e+04 # CA1-SC96 type=non-native eps=0.002390 sigma=3.817121
pair_coeff 1 187 0.000000e+00 0.000000e+00 4.009755e+04 # CA1-CA97 type=non-native eps=0.002390 sigma=4.000000
pair_coeff 1 188 0.000000e+00 0.000000e+00 4.009755e+04 # CA1-SC97 type=non-native eps=0.002390 sigma=4.000000
pair_coeff 1 189 0.000000e+00 0.000000e+00 4.009755e+04 # CA1-CA98 type=non-native eps=0.002390 sigma=4.000000
pair_coeff 1 190 0.000000e+00 0.000000e+00 2.286802e+04 # CA1-SC98 type=non-native eps=0.002390 sigma=3.817121
pair_coeff 1 191 0.000000e+00 0.000000e+00 4.009755e+04 # CA1-CA99 type=non-native eps=0.002390 sigma=4.000000
pair_coeff 1 192 0.000000e+00 0.000000e+00 4.009755e+04 # CA1-SC99 type=non-native eps=0.002390 sigma=4.000000
pair_coeff 1 193 0.000000e+00 0.000000e+00 4.009755e+04 # CA1-CA100 type=non-native eps=0.002390 sigma=4.000000
pair_coeff 1 194 0.000000e+00 0.000000e+00 1.085818e+04 # CA1-SC100 type=non-native eps=0.002390 sigma=3.587401
pair_coeff 1 195 0.000000e+00 0.000000e+00 4.009755e+04 # CA1-CA101 type=non-native eps=0.002390 sigma=4.000000
pair_coeff 1 196 0.000000e+00 0.000000e+00 6.317440e+04 # CA1-SC101 type=non-native eps=0.002390 sigma=4.154435
pair_coeff 1 197 0.000000e+00 0.000000e+00 4.009755e+04 # CA1-CA102 type=non-native eps=0.002390 sigma=4.000000
pair_coeff 1 198 0.000000e+00 0.000000e+00 1.085818e+04 # CA1-SC102 type=non-native eps=0.002390 sigma=3.587401
pair_coeff 1 199 0.000000e+00 0.000000e+00 4.009755e+04 # CA1-CA103 type=non-native eps=0.002390 sigma=4.000000
pair_coeff 1 200 0.000000e+00 0.000000e+00 2.286802e+04 # CA1-SC103 type=non-native eps=0.002390 sigma=3.817121
pair_coeff 1 201 0.000000e+00 0.000000e+00 4.009755e+04 # CA1-CA104 type=non-native eps=0.002390 sigma=4.000000
pair_coeff 1 202 0.000000e+00 0.000000e+00 1.085818e+04 # CA1-SC104 type=non-native eps=0.002390 sigma=3.587401
pair_coeff 1 203 0.000000e+00 0.000000e+00 4.009755e+04 # CA1-CA105 type=non-native eps=0.002390 sigma=4.000000
pair_coeff 1 204 0.000000e+00 0.000000e+00 6.317440e+04 # CA1-SC105 type=non-native eps=0.002390 sigma=4.154435
pair_coeff 1 205 0.000000e+00 0.000000e+00 4.009755e+04 # CA1-CA106 type=non-native eps=0.002390 sigma=4.000000
pair_coeff 1 206 0.000000e+00 0.000000e+00 4.009755e+04 # CA1-SC106 type=non-native eps=0.002390 sigma=4.000000
pair_coeff 1 207 0.000000e+00 0.000000e+00 4.009755e+04 # CA1-CA107 type=non-native eps=0.002390 sigma=4.000000
pair_coeff 1 208 0.000000e+00 0.000000e+00 1.085818e+04 # CA1-SC107 type=non-native eps=0.002390 sigma=3.587401
pair_coeff 2 2 0.000000e+00 0.000000e+00 4.009755e+04 # CA2-CA2 type=non-native eps=0.002390 sigma=4.000000
pair_coeff 2 3 0.000000e+00 0.000000e+00 2.286802e+04 # CA2-SC2 type=non-native eps=0.002390 sigma=3.817121
pair_coeff 2 4 0.000000e+00 0.000000e+00 4.009755e+04 # CA2-CA3 type=non-native eps=0.002390 sigma=4.000000
pair_coeff 2 5 0.000000e+00 0.000000e+00 4.009755e+04 # CA2-SC3 type=non-native eps=0.002390 sigma=4.000000
pair_coeff 2 6 0.000000e+00 0.000000e+00 4.009755e+04 # CA2-CA4 type=non-native eps=0.002390 sigma=4.000000
pair_coeff 2 7 0.000000e+00 0.000000e+00 4.009755e+04 # CA2-SC4 type=non-native eps=0.002390 sigma=4.000000
pair_coeff 2 8 0.000000e+00 0.000000e+00 4.009755e+04 # CA2-CA5 type=non-native eps=0.002390 sigma=4.000000
pair_coeff 2 9 0.000000e+00 0.000000e+00 3.442571e+03 # CA2-SC5 type=non-native eps=0.002390 sigma=3.259921
pair_coeff 2 10 0.000000e+00 0.000000e+00 4.009755e+04 # CA2-CA6 type=non-native eps=0.002390 sigma=4.000000
pair_coeff 2 11 0.000000e+00 0.000000e+00 1.085818e+04 # CA2-SC6 type=non-native eps=0.002390 sigma=3.587401
pair_coeff 2 12 0.000000e+00 0.000000e+00 4.009755e+04 # CA2-CA7 type=non-native eps=0.002390 sigma=4.000000
pair_coeff 2 13 0.000000e+00 0.000000e+00 2.286802e+04 # CA2-SC7 type=non-native eps=0.002390 sigma=3.817121
pair_coeff 2 14 0.000000e+00 0.000000e+00 4.009755e+04 # CA2-CA8 type=non-native eps=0.002390 sigma=4.000000
pair_coeff 2 15 0.000000e+00 0.000000e+00 6.317440e+04 # CA2-SC8 type=non-native eps=0.002390 sigma=4.154435
pair_coeff 2 16 0.000000e+00 0.000000e+00 4.009755e+04 # CA2-CA9 type=non-native eps=0.002390 sigma=4.000000
pair_coeff 2 17 0.000000e+00 0.000000e+00 6.317440e+04 # CA2-SC9 type=non-native eps=0.002390 sigma=4.154435
pair_coeff 2 18 0.000000e+00 0.000000e+00 4.009755e+04 # CA2-CA10 type=non-native eps=0.002390 sigma=4.000000
pair_coeff 2 19 0.000000e+00 0.000000e+00 6.317440e+04 # CA2-SC10 type=non-native eps=0.002390 sigma=4.154435
pair_coeff 2 20 0.000000e+00 0.000000e+00 4.009755e+04 # CA2-CA11 type=non-native eps=0.002390 sigma=4.000000
pair_coeff 2 21 0.000000e+00 0.000000e+00 4.009755e+04 # CA2-CA12 type=non-native eps=0.002390 sigma=4.000000
pair_coeff 2 22 0.000000e+00 0.000000e+00 2.286802e+04 # CA2-SC12 type=non-native eps=0.002390 sigma=3.817121
pair_coeff 2 23 0.000000e+00 0.000000e+00 4.009755e+04 # CA2-CA13 type=non-native eps=0.002390 sigma=4.000000
pair_coeff 2 24 0.000000e+00 0.000000e+00 1.293687e+05 # CA2-SC13 type=non-native eps=0.002390 sigma=4.410142
pair_coeff 2 25 0.000000e+00 0.000000e+00 4.009755e+04 # CA2-CA14 type=non-native eps=0.002390 sigma=4.000000
pair_coeff 2 26 0.000000e+00 0.000000e+00 1.293687e+05 # CA2-SC14 type=non-native eps=0.002390 sigma=4.410142
pair_coeff 2 27 0.000000e+00 0.000000e+00 4.009755e+04 # CA2-CA15 type=non-native eps=0.002390 sigma=4.000000
pair_coeff 2 28 0.000000e+00 0.000000e+00 3.442571e+03 # CA2-SC15 type=non-native eps=0.002390 sigma=3.259921
pair_coeff 2 29 0.000000e+00 0.000000e+00 4.009755e+04 # CA2-CA16 type=non-native eps=0.002390 sigma=4.000000
pair_coeff 2 30 0.000000e+00 0.000000e+00 4.009755e+04 # CA2-SC16 type=non-native eps=0.002390 sigma=4.000000
pair_coeff 2 31 0.000000e+00 0.000000e+00 4.009755e+04 # CA2-CA17 type=non-native eps=0.002390 sigma=4.000000
pair_coeff 2 32 0.000000e+00 0.000000e+00 4.009755e+04 # CA2-SC17 type=non-native eps=0.002390 sigma=4.000000
pair_coeff 2 33 0.000000e+00 0.000000e+00 4.009755e+04 # CA2-CA18 type=non-native eps=0.002390 sigma=4.000000
pair_coeff 2 34 0.000000e+00 0.000000e+00 1.293687e+05 # CA2-SC18 type=non-native eps=0.002390 sigma=4.410142
pair_coeff 2 35 0.000000e+00 0.000000e+00 4.009755e+04 # CA2-CA19 type=non-native eps=0.002390 sigma=4.000000
pair_coeff 2 36 0.000000e+00 0.000000e+00 3.442571e+03 # CA2-SC19 type=non-native eps=0.002390 sigma=3.259921
pair_coeff 2 37 0.000000e+00 0.000000e+00 4.009755e+04 # CA2-CA20 type=non-native eps=0.002390 sigma=4.000000
pair_coeff 2 38 0.000000e+00 0.000000e+00 2.286802e+04 # CA2-SC20 type=non-native eps=0.002390 sigma=3.817121
pair_coeff 2 39 0.000000e+00 0.000000e+00 4.009755e+04 # CA2-CA21 type=non-native eps=0.002390 sigma=4.000000
pair_coeff 2 40 0.000000e+00 0.000000e+00 4.009755e+04 # CA2-CA22 type=non-native eps=0.002390 sigma=4.000000
pair_coeff 2 41 0.000000e+00 0.000000e+00 6.317440e+04 # CA2-SC22 type=non-native eps=0.002390 sigma=4.154435
pair_coeff 2 42 0.000000e+00 0.000000e+00 4.009755e+04 # CA2-CA23 type=non-native eps=0.002390 sigma=4.000000
pair_coeff 2 43 0.000000e+00 0.000000e+00 1.737309e+05 # CA2-SC23 type=non-native eps=0.002390 sigma=4.519842
pair_coeff 2 44 0.000000e+00 0.000000e+00 4.009755e+04 # CA2-CA24 type=non-native eps=0.002390 sigma=4.000000
pair_coeff 2 45 0.000000e+00 0.000000e+00 4.009755e+04 # CA2-SC24 type=non-native eps=0.002390 sigma=4.000000
pair_coeff 2 46 0.000000e+00 0.000000e+00 4.009755e+04 # CA2-CA25 type=non-native eps=0.002390 sigma=4.000000
pair_coeff 2 47 0.000000e+00 0.000000e+00 6.317440e+04 # CA2-SC25 type=non-native eps=0.002390 sigma=4.154435
pair_coeff 2 48 0.000000e+00 0.000000e+00 4.009755e+04 # CA2-CA26 type=non-native eps=0.002390 sigma=4.000000
pair_coeff 2 49 0.000000e+00 0.000000e+00 3.442571e+03 # CA2-SC26 type=non-native eps=0.002390 sigma=3.259921
pair_coeff 2 50 0.000000e+00 0.000000e+00 4.009755e+04 # CA2-CA27 type=non-native eps=0.002390 sigma=4.000000
pair_coeff 2 51 0.000000e+00 0.000000e+00 1.085818e+04 # CA2-SC27 type=non-native eps=0.002390 sigma=3.587401
pair_coeff 2 52 0.000000e+00 0.000000e+00 4.009755e+04 # CA2-CA28 type=non-native eps=0.002390 sigma=4.000000
pair_coeff 2 53 0.000000e+00 0.000000e+00 4.009755e+04 # CA2-SC28 type=non-native eps=0.002390 sigma=4.000000
pair_coeff 2 54 0.000000e+00 0.000000e+00 4.009755e+04 # CA2-CA29 type=non-native eps=0.002390 sigma=4.000000
pair_coeff 2 55 0.000000e+00 0.000000e+00 4.009755e+04 # CA2-SC29 type=non-native eps=0.002390 sigma=4.000000
pair_coeff 2 56 0.000000e+00 0.000000e+00 4.009755e+04 # CA2-CA30 type=non-native eps=0.002390 sigma=4.000000
pair_coeff 2 57 0.000000e+00 0.000000e+00 4.009755e+04 # CA2-SC30 type=non-native eps=0.002390 sigma=4.000000
pair_coeff 2 58 0.000000e+00 0.000000e+00 4.009755e+04 # CA2-CA31 type=non-native eps=0.002390 sigma=4.000000
pair_coeff 2 59 0.000000e+00 0.000000e+00 1.737309e+05 # CA2-SC31 type=non-native eps=0.002390 sigma=4.519842
pair_coeff 2 60 0.000000e+00 0.000000e+00 4.009755e+04 # CA2-CA32 type=non-native eps=0.002390 sigma=4.000000
pair_coeff 2 61 0.000000e+00 0.000000e+00 9.272377e+04 # CA2-SC32 type=non-native eps=0.002390 sigma=4.289428
pair_coeff 2 62 0.000000e+00 0.000000e+00 4.009755e+04 # CA2-CA33 type=non-native eps=0.002390 sigma=4.000000
pair_coeff 2 63 0.000000e+00 0.000000e+00 1.085818e+04 # CA2-SC33 type=non-native eps=0.002390 sigma=3.587401
pair_coeff 2 64 0.000000e+00 0.000000e+00 4.009755e+04 # CA2-CA34 type=non-native eps=0.002390 sigma=4.000000
pair_coeff 2 65 0.000000e+00 0.000000e+00 1.293687e+05 # CA2-SC34 type=non-native eps=0.002390 sigma=4.410142
pair_coeff 2 66 0.000000e+00 0.000000e+00 4.009755e+04 # CA2-CA35 type=non-native eps=0.002390 sigma=4.000000
pair_coeff 2 67 0.000000e+00 0.000000e+00 3.442571e+03 # CA2-SC35 type=non-native eps=0.002390 sigma=3.259921
pair_coeff 2 68 0.000000e+00 0.000000e+00 4.009755e+04 # CA2-CA36 type=non-native eps=0.002390 sigma=4.000000
pair_coeff 2 69 0.000000e+00 0.000000e+00 4.009755e+04 # CA2-SC36 type=non-native eps=0.002390 sigma=4.000000
pair_coeff 2 70 0.000000e+00 0.000000e+00 4.009755e+04 # CA2-CA37 type=non-native eps=0.002390 sigma=4.000000
pair_coeff 2 71 0.000000e+00 0.000000e+00 6.317440e+04 # CA2-SC37 type=non-native eps=0.002390 sigma=4.154435
pair_coeff 2 72 0.000000e+00 0.000000e+00 4.009755e+04 # CA2-CA38 type=non-native eps=0.002390 sigma=4.000000
pair_coeff 2 73 0.000000e+00 0.000000e+00 2.286802e+04 # CA2-SC38 type=non-native eps=0.002390 sigma=3.817121
pair_coeff 2 74 0.000000e+00 0.000000e+00 4.009755e+04 # CA2-CA39 type=non-native eps=0.002390 sigma=4.000000
pair_coeff 2 75 0.000000e+00 0.000000e+00 2.286802e+04 # CA2-SC39 type=non-native eps=0.002390 sigma=3.817121
pair_coeff 2 76 0.000000e+00 0.000000e+00 4.009755e+04 # CA2-CA40 type=non-native eps=0.002390 sigma=4.000000
pair_coeff 2 77 0.000000e+00 0.000000e+00 1.293687e+05 # CA2-SC40 type=non-native eps=0.002390 sigma=4.410142
pair_coeff 2 78 0.000000e+00 0.000000e+00 4.009755e+04 # CA2-CA41 type=non-native eps=0.002390 sigma=4.000000
pair_coeff 2 79 0.000000e+00 0.000000e+00 3.442571e+03 # CA2-SC41 type=non-native eps=0.002390 sigma=3.259921
pair_coeff 2 80 0.000000e+00 0.000000e+00 4.009755e+04 # CA2-CA42 type=non-native eps=0.002390 sigma=4.000000
pair_coeff 2 81 -5.780466e+03 0.000000e+00 1.048550e+08 # CA2-SC42 type=native eps=0.079667 sigma=5.753640
pair_coeff 2 82 -3.121259e+03 0.000000e+00 2.038129e+07 # CA2-CA43 type=native eps=0.119500 sigma=4.852758
pair_coeff 2 83 0.000000e+00 0.000000e+00 6.317440e+04 # CA2-SC43 type=non-native eps=0.002390 sigma=4.154435
pair_coeff 2 84 -6.447689e+02 0.000000e+00 2.174304e+06 # CA2-CA44 type=native eps=0.047800 sigma=4.346680
pair_coeff 2 85 -5.791490e+02 0.000000e+00 1.754255e+06 # CA2-SC44 type=native eps=0.047800 sigma=4.269615
pair_coeff 2 86 0.000000e+00 0.000000e+00 4.009755e+04 # CA2-CA45 type=non-native eps=0.002390 sigma=4.000000
pair_coeff 2 87 0.000000e+00 0.000000e+00 4.009755e+04 # CA2-SC45 type=non-native eps=0.002390 sigma=4.000000
pair_coeff 2 88 0.000000e+00 0.000000e+00 4.009755e+04 # CA2-CA46 type=non-native eps=0.002390 sigma=4.000000
pair_coeff 2 89 0.000000e+00 0.000000e+00 2.286802e+04 # CA2-SC46 type=non-native eps=0.002390 sigma=3.817121
pair_coeff 2 90 0.000000e+00 0.000000e+00 4.009755e+04 # CA2-CA47 type=non-native eps=0.002390 sigma=4.000000
pair_coeff 2 91 0.000000e+00 0.000000e+00 3.442571e+03 # CA2-SC47 type=non-native eps=0.002390 sigma=3.259921
pair_coeff 2 92 0.000000e+00 0.000000e+00 4.009755e+04 # CA2-CA48 type=non-native eps=0.002390 sigma=4.000000
pair_coeff 2 93 0.000000e+00 0.000000e+00 4.009755e+04 # CA2-CA49 type=non-native eps=0.002390 sigma=4.000000
pair_coeff 2 94 0.000000e+00 0.000000e+00 2.286802e+04 # CA2-SC49 type=non-native eps=0.002390 sigma=3.817121
pair_coeff 2 95 0.000000e+00 0.000000e+00 4.009755e+04 # CA2-CA50 type=non-native eps=0.002390 sigma=4.000000
pair_coeff 2 96 0.000000e+00 0.000000e+00 4.009755e+04 # CA2-SC50 type=non-native eps=0.002390 sigma=4.000000
pair_coeff 2 97 0.000000e+00 0.000000e+00 4.009755e+04 # CA2-CA51 type=non-native eps=0.002390 sigma=4.000000
pair_coeff 2 98 0.000000e+00 0.000000e+00 1.737309e+05 # CA2-SC51 type=non-native eps=0.002390 sigma=4.519842
pair_coeff 2 99 0.000000e+00 0.000000e+00 4.009755e+04 # CA2-CA52 type=non-native eps=0.002390 sigma=4.000000
pair_coeff 2 100 0.000000e+00 0.000000e+00 1.293687e+05 # CA2-SC52 type=non-native eps=0.002390 sigma=4.410142
pair_coeff 2 101 0.000000e+00 0.000000e+00 4.009755e+04 # CA2-CA53 type=non-native eps=0.002390 sigma=4.000000
pair_coeff 2 102 0.000000e+00 0.000000e+00 4.009755e+04 # CA2-SC53 type=non-native eps=0.002390 sigma=4.000000
pair_coeff 2 103 0.000000e+00 0.000000e+00 4.009755e+04 # CA2-CA54 type=non-native eps=0.002390 sigma=4.000000
pair_coeff 2 104 0.000000e+00 0.000000e+00 4.009755e+04 # CA2-SC54 type=non-native eps=0.002390 sigma=4.000000
pair_coeff 2 105 0.000000e+00 0.000000e+00 4.009755e+04 # CA2-CA55 type=non-native eps=0.002390 sigma=4.000000
pair_coeff 2 106 0.000000e+00 0.000000e+00 2.286802e+04 # CA2-SC55 type=non-native eps=0.002390 sigma=3.817121
pair_coeff 2 107 0.000000e+00 0.000000e+00 4.009755e+04 # CA2-CA56 type=non-native eps=0.002390 sigma=4.000000
pair_coeff 2 108 0.000000e+00 0.000000e+00 6.317440e+04 # CA2-SC56 type=non-native eps=0.002390 sigma=4.154435
pair_coeff 2 109 0.000000e+00 0.000000e+00 4.009755e+04 # CA2-CA57 type=non-native eps=0.002390 sigma=4.000000
pair_coeff 2 110 0.000000e+00 0.000000e+00 4.009755e+04 # CA2-SC57 type=non-native eps=0.002390 sigma=4.000000
pair_coeff 2 111 0.000000e+00 0.000000e+00 4.009755e+04 # CA2-CA58 type=non-native eps=0.002390 sigma=4.000000
pair_coeff 2 112 0.000000e+00 0.000000e+00 4.009755e+04 # CA2-CA59 type=non-native eps=0.002390 sigma=4.000000
pair_coeff 2 113 0.000000e+00 0.000000e+00 1.293687e+05 # CA2-SC59 type=non-native eps=0.002390 sigma=4.410142
pair_coeff 2 114 0.000000e+00 0.000000e+00 4.009755e+04 # CA2-CA60 type=non-native eps=0.002390 sigma=4.000000
pair_coeff 2 115 0.000000e+00 0.000000e+00 2.286802e+04 # CA2-SC60 type=non-native eps=0.002390 sigma=3.817121
pair_coeff 2 116 0.000000e+00 0.000000e+00 4.009755e+04 # CA2-CA61 type=non-native eps=0.002390 sigma=4.000000
pair_coeff 2 117 0.000000e+00 0.000000e+00 2.286802e+04 # CA2-SC61 type=non-native eps=0.002390 sigma=3.817121
pair_coeff 2 118 0.000000e+00 0.000000e+00 4.009755e+04 # CA2-CA62 type=non-native eps=0.002390 sigma=4.000000
pair_coeff 2 119 0.000000e+00 0.000000e+00 1.085818e+04 # CA2-SC62 type=non-native eps=0.002390 sigma=3.587401
pair_coeff 2 120 0.000000e+00 0.000000e+00 4.009755e+04 # CA2-CA63 type=non-native eps=0.002390 sigma=4.000000
pair_coeff 2 121 0.000000e+00 0.000000e+00 2.286802e+04 # CA2-SC63 type=non-native eps=0.002390 sigma=3.817121
pair_coeff 2 122 0.000000e+00 0.000000e+00 4.009755e+04 # CA2-CA64 type=non-native eps=0.002390 sigma=4.000000
pair_coeff 2 123 0.000000e+00 0.000000e+00 6.317440e+04 # CA2-SC64 type=non-native eps=0.002390 sigma=4.154435
pair_coeff 2 124 0.000000e+00 0.000000e+00 4.009755e+04 # CA2-CA65 type=non-native eps=0.002390 sigma=4.000000
pair_coeff 2 125 0.000000e+00 0.000000e+00 2.286802e+04 # CA2-SC65 type=non-native eps=0.002390 sigma=3.817121
pair_coeff 2 126 0.000000e+00 0.000000e+00 4.009755e+04 # CA2-CA66 type=non-native eps=0.002390 sigma=4.000000
pair_coeff 2 127 0.000000e+00 0.000000e+00 9.272377e+04 # CA2-SC66 type=non-native eps=0.002390 sigma=4.289428
pair_coeff 2 128 0.000000e+00 0.000000e+00 4.009755e+04 # CA2-CA67 type=non-native eps=0.002390 sigma=4.000000
pair_coeff 2 129 0.000000e+00 0.000000e+00 4.009755e+04 # CA2-SC67 type=non-native eps=0.002390 sigma=4.000000
pair_coeff 2 130 0.000000e+00 0.000000e+00 4.009755e+04 # CA2-CA68 type=non-native eps=0.002390 sigma=4.000000
pair_coeff 2 131 0.000000e+00 0.000000e+00 4.009755e+04 # CA2-SC68 type=non-native eps=0.002390 sigma=4.000000
pair_coeff 2 132 0.000000e+00 0.000000e+00 4.009755e+04 # CA2-CA69 type=non-native eps=0.002390 sigma=4.000000
pair_coeff 2 133 0.000000e+00 0.000000e+00 4.009755e+04 # CA2-SC69 type=non-native eps=0.002390 sigma=4.000000
pair_coeff 2 134 0.000000e+00 0.000000e+00 4.009755e+04 # CA2-CA70 type=non-native eps=0.002390 sigma=4.000000
pair_coeff 2 135 0.000000e+00 0.000000e+00 1.085818e+04 # CA2-SC70 type=non-native eps=0.002390 sigma=3.587401
pair_coeff 2 136 0.000000e+00 0.000000e+00 4.009755e+04 # CA2-CA71 type=non-native eps=0.002390 sigma=4.000000
pair_coeff 2 137 0.000000e+00 0.000000e+00 2.286802e+04 # CA2-SC71 type=non-native eps=0.002390 sigma=3.817121
pair_coeff 2 138 0.000000e+00 0.000000e+00 4.009755e+04 # CA2-CA72 type=non-native eps=0.002390 sigma=4.000000
pair_coeff 2 139 0.000000e+00 0.000000e+00 1.293687e+05 # CA2-SC72 type=non-native eps=0.002390 sigma=4.410142
pair_coeff 2 140 0.000000e+00 0.000000e+00 4.009755e+04 # CA2-CA73 type=non-native eps=0.002390 sigma=4.000000
pair_coeff 2 141 0.000000e+00 0.000000e+00 9.272377e+04 # CA2-SC73 type=non-native eps=0.002390 sigma=4.289428
pair_coeff 2 142 0.000000e+00 0.000000e+00 4.009755e+04 # CA2-CA74 type=non-native eps=0.002390 sigma=4.000000
pair_coeff 2 143 0.000000e+00 0.000000e+00 4.009755e+04 # CA2-SC74 type=non-native eps=0.002390 sigma=4.000000
pair_coeff 2 144 0.000000e+00 0.000000e+00 4.009755e+04 # CA2-CA75 type=non-native eps=0.002390 sigma=4.000000
pair_coeff 2 145 0.000000e+00 0.000000e+00 6.317440e+04 # CA2-SC75 type=non-native eps=0.002390 sigma=4.154435
pair_coeff 2 146 0.000000e+00 0.000000e+00 4.009755e+04 # CA2-CA76 type=non-native eps=0.002390 sigma=4.000000
pair_coeff 2 147 0.000000e+00 0.000000e+00 2.286802e+04 # CA2-SC76 type=non-native eps=0.002390 sigma=3.817121
pair_coeff 2 148 0.000000e+00 0.000000e+00 4.009755e+04 # CA2-CA77 type=non-native eps=0.002390 sigma=4.000000
pair_coeff 2 149 0.000000e+00 0.000000e+00 9.272377e+04 # CA2-SC77 type=non-native eps=0.002390 sigma=4.289428
pair_coeff 2 150 0.000000e+00 0.000000e+00 4.009755e+04 # CA2-CA78 type=non-native eps=0.002390 sigma=4.000000
pair_coeff 2 151 0.000000e+00 0.000000e+00 4.009755e+04 # CA2-SC78 type=non-native eps=0.002390 sigma=4.000000
pair_coeff 2 152 0.000000e+00 0.000000e+00 4.009755e+04 # CA2-CA79 type=non-native eps=0.002390 sigma=4.000000
pair_coeff 2 153 0.000000e+00 0.000000e+00 6.317440e+04 # CA2-SC79 type=non-native eps=0.002390 sigma=4.154435
pair_coeff 2 154 0.000000e+00 0.000000e+00 4.009755e+04 # CA2-CA80 type=non-native eps=0.002390 sigma=4.000000
pair_coeff 2 155 0.000000e+00 0.000000e+00 1.293687e+05 # CA2-SC80 type=non-native eps=0.002390 sigma=4.410142
pair_coeff 2 156 0.000000e+00 0.000000e+00 4.009755e+04 # CA2-CA81 type=non-native eps=0.002390 sigma=4.000000
pair_coeff 2 157 0.000000e+00 0.000000e+00 6.317440e+04 # CA2-SC81 type=non-native eps=0.002390 sigma=4.154435
pair_coeff 2 158 0.000000e+00 0.000000e+00 4.009755e+04 # CA2-CA82 type=non-native eps=0.002390 sigma=4.000000
pair_coeff 2 159 0.000000e+00 0.000000e+00 3.442571e+03 # CA2-SC82 type=non-native eps=0.002390 sigma=3.259921
pair_coeff 2 160 0.000000e+00 0.000000e+00 4.009755e+04 # CA2-CA83 type=non-native eps=0.002390 sigma=4.000000
pair_coeff 2 161 0.000000e+00 0.000000e+00 1.293687e+05 # CA2-SC83 type=non-native eps=0.002390 sigma=4.410142
pair_coeff 2 162 0.000000e+00 0.000000e+00 4.009755e+04 # CA2-CA84 type=non-native eps=0.002390 sigma=4.000000
pair_coeff 2 163 0.000000e+00 0.000000e+00 1.085818e+04 # CA2-SC84 type=non-native eps=0.002390 sigma=3.587401
pair_coeff 2 164 0.000000e+00 0.000000e+00 4.009755e+04 # CA2-CA85 type=non-native eps=0.002390 sigma=4.000000
pair_coeff 2 165 0.000000e+00 0.000000e+00 1.085818e+04 # CA2-SC85 type=non-native eps=0.002390 sigma=3.587401
pair_coeff 2 166 0.000000e+00 0.000000e+00 4.009755e+04 # CA2-CA86 type=non-native eps=0.002390 sigma=4.000000
pair_coeff 2 167 0.000000e+00 0.000000e+00 1.293687e+05 # CA2-SC86 type=non-native eps=0.002390 sigma=4.410142
pair_coeff 2 168 0.000000e+00 0.000000e+00 4.009755e+04 # CA2-CA87 type=non-native eps=0.002390 sigma=4.000000
pair_coeff 2 169 0.000000e+00 0.000000e+00 6.317440e+04 # CA2-SC87 type=non-native eps=0.002390 sigma=4.154435
pair_coeff 2 170 0.000000e+00 0.000000e+00 4.009755e+04 # CA2-CA88 type=non-native eps=0.002390 sigma=4.000000
pair_coeff 2 171 0.000000e+00 0.000000e+00 4.009755e+04 # CA2-SC88 type=non-native eps=0.002390 sigma=4.000000
pair_coeff 2 172 0.000000e+00 0.000000e+00 4.009755e+04 # CA2-CA89 type=non-native eps=0.002390 sigma=4.000000
pair_coeff 2 173 0.000000e+00 0.000000e+00 1.737309e+05 # CA2-SC89 type=non-native eps=0.002390 sigma=4.519842
pair_coeff 2 174 0.000000e+00 0.000000e+00 4.009755e+04 # CA2-CA90 type=non-native eps=0.002390 sigma=4.000000
pair_coeff 2 175 0.000000e+00 0.000000e+00 3.442571e+03 # CA2-SC90 type=non-native eps=0.002390 sigma=3.259921
pair_coeff 2 176 0.000000e+00 0.000000e+00 4.009755e+04 # CA2-CA91 type=non-native eps=0.002390 sigma=4.000000
pair_coeff 2 177 0.000000e+00 0.000000e+00 2.286802e+04 # CA2-SC91 type=non-native eps=0.002390 sigma=3.817121
pair_coeff 2 178 0.000000e+00 0.000000e+00 4.009755e+04 # CA2-CA92 type=non-native eps=0.002390 sigma=4.000000
pair_coeff 2 179 0.000000e+00 0.000000e+00 2.286802e+04 # CA2-SC92 type=non-native eps=0.002390 sigma=3.817121
pair_coeff 2 180 0.000000e+00 0.000000e+00 4.009755e+04 # CA2-CA93 type=non-native eps=0.002390 sigma=4.000000
pair_coeff 2 181 0.000000e+00 0.000000e+00 2.880942e+05 # CA2-SC93 type=non-native eps=0.002390 sigma=4.714418
pair_coeff 2 182 0.000000e+00 0.000000e+00 4.009755e+04 # CA2-CA94 type=non-native eps=0.002390 sigma=4.000000
pair_coeff 2 183 0.000000e+00 0.000000e+00 6.317440e+04 # CA2-SC94 type=non-native eps=0.002390 sigma=4.154435
pair_coeff 2 184 0.000000e+00 0.000000e+00 4.009755e+04 # CA2-CA95 type=non-native eps=0.002390 sigma=4.000000
pair_coeff 2 185 0.000000e+00 0.000000e+00 4.009755e+04 # CA2-CA96 type=non-native eps=0.002390 sigma=4.000000
pair_coeff 2 186 0.000000e+00 0.000000e+00 2.286802e+04 # CA2-SC96 type=non-native eps=0.002390 sigma=3.817121
pair_coeff 2 187 0.000000e+00 0.000000e+00 4.009755e+04 # CA2-CA97 type=non-native eps=0.002390 sigma=4.000000
pair_coeff 2 188 0.000000e+00 0.000000e+00 4.009755e+04 # CA2-SC97 type=non-native eps=0.002390 sigma=4.000000
pair_coeff 2 189 0.000000e+00 0.000000e+00 4.009755e+04 # CA2-CA98 type=non-native eps=0.002390 sigma=4.000000
pair_coeff 2 190 0.000000e+00 0.000000e+00 2.286802e+04 # CA2-SC98 type=non-native eps=0.002390 sigma=3.817121
pair_coeff 2 191 0.000000e+00 0.000000e+00 4.009755e+04 # CA2-CA99 type=non-native eps=0.002390 sigma=4.000000
pair_coeff 2 192 0.000000e+00 0.000000e+00 4.009755e+04 # CA2-SC99 type=non-native eps=0.002390 sigma=4.000000
pair_coeff 2 193 0.000000e+00 0.000000e+00 4.009755e+04 # CA2-CA100 type=non-native eps=0.002390 sigma=4.000000
pair_coeff 2 194 0.000000e+00 0.000000e+00 1.085818e+04 # CA2-SC100 type=non-native eps=0.002390 sigma=3.587401
pair_coeff 2 195 0.000000e+00 0.000000e+00 4.009755e+04 # CA2-CA101 type=non-native eps=0.002390 sigma=4.000000
pair_coeff 2 196 0.000000e+00 0.000000e+00 6.317440e+04 # CA2-SC101 type=non-native eps=0.002390 sigma=4.154435
pair_coeff 2 197 0.000000e+00 0.000000e+00 4.009755e+04 # CA2-CA102 type=non-native eps=0.002390 sigma=4.000000
pair_coeff 2 198 0.000000e+00 0.000000e+00 1.085818e+04 # CA2-SC102 type=non-native eps=0.002390 sigma=3.587401
pair_coeff 2 199 0.000000e+00 0.000000e+00 4.009755e+04 # CA2-CA103 type=non-native eps=0.002390 sigma=4.000000
pair_coeff 2 200 0.000000e+00 0.000000e+00 2.286802e+04 # CA2-SC103 type=non-native eps=0.002390 sigma=3.817121
pair_coeff 2 201 0.000000e+00 0.000000e+00 4.009755e+04 # CA2-CA104 type=non-native eps=0.002390 sigma=4.000000
pair_coeff 2 202 0.000000e+00 0.000000e+00 1.085818e+04 # CA2-SC104 type=non-native eps=0.002390 sigma=3.587401
pair_coeff 2 203 0.000000e+00 0.000000e+00 4.009755e+04 # CA2-CA105 type=non-native eps=0.002390 sigma=4.000000
pair_coeff 2 204 0.000000e+00 0.000000e+00 6.317440e+04 # CA2-SC105 type=non-native eps=0.002390 sigma=4.154435
pair_coeff 2 205 0.000000e+00 0.000000e+00 4.009755e+04 # CA2-CA106 type=non-native eps=0.002390 sigma=4.000000
pair_coeff 2 206 0.000000e+00 0.000000e+00 4.009755e+04 # CA2-SC106 type=non-native eps=0.002390 sigma=4.000000
pair_coeff 2 207 0.000000e+00 0.000000e+00 4.009755e+04 # CA2-CA107 type=non-native eps=0.002390 sigma=4.000000
pair_coeff 2 208 0.000000e+00 0.000000e+00 1.085818e+04 # CA2-SC107 type=non-native eps=0.002390 sigma=3.587401
pair_coeff 3 3 0.000000e+00 0.000000e+00 1.268711e+04 # SC2-SC2 type=non-native eps=0.002390 sigma=3.634241
pair_coeff 3 4 0.000000e+00 0.000000e+00 2.286802e+04 # SC2-CA3 type=non-native eps=0.002390 sigma=3.817121
pair_coeff 3 5 0.000000e+00 0.000000e+00 2.286802e+04 # SC2-SC3 type=non-native eps=0.002390 sigma=3.817121
pair_coeff 3 6 0.000000e+00 0.000000e+00 2.286802e+04 # SC2-CA4 type=non-native eps=0.002390 sigma=3.817121
pair_coeff 3 7 0.000000e+00 0.000000e+00 2.286802e+04 # SC2-SC4 type=non-native eps=0.002390 sigma=3.817121
pair_coeff 3 8 0.000000e+00 0.000000e+00 2.286802e+04 # SC2-CA5 type=non-native eps=0.002390 sigma=3.817121
pair_coeff 3 9 0.000000e+00 0.000000e+00 1.721862e+03 # SC2-SC5 type=non-native eps=0.002390 sigma=3.077042
pair_coeff 3 10 0.000000e+00 0.000000e+00 2.286802e+04 # SC2-CA6 type=non-native eps=0.002390 sigma=3.817121
pair_coeff 3 11 0.000000e+00 0.000000e+00 5.795236e+03 # SC2-SC6 type=non-native eps=0.002390 sigma=3.404522
pair_coeff 3 12 0.000000e+00 0.000000e+00 2.286802e+04 # SC2-CA7 type=non-native eps=0.002390 sigma=3.817121
pair_coeff 3 13 0.000000e+00 0.000000e+00 1.268711e+04 # SC2-SC7 type=non-native eps=0.002390 sigma=3.634241
pair_coeff 3 14 0.000000e+00 0.000000e+00 2.286802e+04 # SC2-CA8 type=non-native eps=0.002390 sigma=3.817121
pair_coeff 3 15 0.000000e+00 0.000000e+00 3.680656e+04 # SC2-SC8 type=non-native eps=0.002390 sigma=3.971555
pair_coeff 3 16 0.000000e+00 0.000000e+00 2.286802e+04 # SC2-CA9 type=non-native eps=0.002390 sigma=3.817121
pair_coeff 3 17 0.000000e+00 0.000000e+00 3.680656e+04 # SC2-SC9 type=non-native eps=0.002390 sigma=3.971555
pair_coeff 3 18 0.000000e+00 0.000000e+00 2.286802e+04 # SC2-CA10 type=non-native eps=0.002390 sigma=3.817121
pair_coeff 3 19 0.000000e+00 0.000000e+00 3.680656e+04 # SC2-SC10 type=non-native eps=0.002390 sigma=3.971555
pair_coeff 3 20 0.000000e+00 0.000000e+00 2.286802e+04 # SC2-CA11 type=non-native eps=0.002390 sigma=3.817121
pair_coeff 3 21 0.000000e+00 0.000000e+00 2.286802e+04 # SC2-CA12 type=non-native eps=0.002390 sigma=3.817121
pair_coeff 3 22 0.000000e+00 0.000000e+00 1.268711e+04 # SC2-SC12 type=non-native eps=0.002390 sigma=3.634241
pair_coeff 3 23 0.000000e+00 0.000000e+00 2.286802e+04 # SC2-CA13 type=non-native eps=0.002390 sigma=3.817121
pair_coeff 3 24 0.000000e+00 0.000000e+00 7.782318e+04 # SC2-SC13 type=non-native eps=0.002390 sigma=4.227263
pair_coeff 3 25 0.000000e+00 0.000000e+00 2.286802e+04 # SC2-CA14 type=non-native eps=0.002390 sigma=3.817121
pair_coeff 3 26 0.000000e+00 0.000000e+00 7.782318e+04 # SC2-SC14 type=non-native eps=0.002390 sigma=4.227263
pair_coeff 3 27 0.000000e+00 0.000000e+00 2.286802e+04 # SC2-CA15 type=non-native eps=0.002390 sigma=3.817121
pair_coeff 3 28 0.000000e+00 0.000000e+00 1.721862e+03 # SC2-SC15 type=non-native eps=0.002390 sigma=3.077042
pair_coeff 3 29 0.000000e+00 0.000000e+00 2.286802e+04 # SC2-CA16 type=non-native eps=0.002390 sigma=3.817121
pair_coeff 3 30 0.000000e+00 0.000000e+00 2.286802e+04 # SC2-SC16 type=non-native eps=0.002390 sigma=3.817121
pair_coeff 3 31 0.000000e+00 0.000000e+00 2.286802e+04 # SC2-CA17 type=non-native eps=0.002390 sigma=3.817121
pair_coeff 3 32 0.000000e+00 0.000000e+00 2.286802e+04 # SC2-SC17 type=non-native eps=0.002390 sigma=3.817121
pair_coeff 3 33 0.000000e+00 0.000000e+00 2.286802e+04 # SC2-CA18 type=non-native eps=0.002390 sigma=3.817121
pair_coeff 3 34 0.000000e+00 0.000000e+00 7.782318e+04 # SC2-SC18 type=non-native eps=0.002390 sigma=4.227263
pair_coeff 3 35 0.000000e+00 0.000000e+00 2.286802e+04 # SC2-CA19 type=non-native eps=0.002390 sigma=3.817121
pair_coeff 3 36 0.000000e+00 0.000000e+00 1.721862e+03 # SC2-SC19 type=non-native eps=0.002390 sigma=3.077042
pair_coeff 3 37 0.000000e+00 0.000000e+00 2.286802e+04 # SC2-CA20 type=non-native eps=0.002390 sigma=3.817121
pair_coeff 3 38 0.000000e+00 0.000000e+00 1.268711e+04 # SC2-SC20 type=non-native eps=0.002390 sigma=3.634241
pair_coeff 3 39 0.000000e+00 0.000000e+00 2.286802e+04 # SC2-CA21 type=non-native eps=0.002390 sigma=3.817121
pair_coeff 3 40 0.000000e+00 0.000000e+00 2.286802e+04 # SC2-CA22 type=non-native eps=0.002390 sigma=3.817121
pair_coeff 3 41 0.000000e+00 0.000000e+00 3.680656e+04 # SC2-SC22 type=non-native eps=0.002390 sigma=3.971555
pair_coeff 3 42 0.000000e+00 0.000000e+00 2.286802e+04 # SC2-CA23 type=non-native eps=0.002390 sigma=3.817121
pair_coeff 3 43 0.000000e+00 0.000000e+00 1.058342e+05 # SC2-SC23 type=non-native eps=0.002390 sigma=4.336963
pair_coeff 3 44 0.000000e+00 0.000000e+00 2.286802e+04 # SC2-CA24 type=non-native eps=0.002390 sigma=3.817121
pair_coeff 3 45 0.000000e+00 0.000000e+00 2.286802e+04 # SC2-SC24 type=non-native eps=0.002390 sigma=3.817121
pair_coeff 3 46 0.000000e+00 0.000000e+00 2.286802e+04 # SC2-CA25 type=non-native eps=0.002390 sigma=3.817121
pair_coeff 3 47 0.000000e+00 0.000000e+00 3.680656e+04 # SC2-SC25 type=non-native eps=0.002390 sigma=3.971555
pair_coeff 3 48 0.000000e+00 0.000000e+00 2.286802e+04 # SC2-CA26 type=non-native eps=0.002390 sigma=3.817121
pair_coeff 3 49 0.000000e+00 0.000000e+00 1.721862e+03 # SC2-SC26 type=non-native eps=0.002390 sigma=3.077042
pair_coeff 3 50 0.000000e+00 0.000000e+00 2.286802e+04 # SC2-CA27 type=non-native eps=0.002390 sigma=3.817121
pair_coeff 3 51 0.000000e+00 0.000000e+00 5.795236e+03 # SC2-SC27 type=non-native eps=0.002390 sigma=3.404522
pair_coeff 3 52 0.000000e+00 0.000000e+00 2.286802e+04 # SC2-CA28 type=non-native eps=0.002390 sigma=3.817121
pair_coeff 3 53 0.000000e+00 0.000000e+00 2.286802e+04 # SC2-SC28 type=non-native eps=0.002390 sigma=3.817121
pair_coeff 3 54 0.000000e+00 0.000000e+00 2.286802e+04 # SC2-CA29 type=non-native eps=0.002390 sigma=3.817121
pair_coeff 3 55 0.000000e+00 0.000000e+00 2.286802e+04 # SC2-SC29 type=non-native eps=0.002390 sigma=3.817121
pair_coeff 3 56 0.000000e+00 0.000000e+00 2.286802e+04 # SC2-CA30 type=non-native eps=0.002390 sigma=3.817121
pair_coeff 3 57 0.000000e+00 0.000000e+00 2.286802e+04 # SC2-SC30 type=non-native eps=0.002390 sigma=3.817121
pair_coeff 3 58 0.000000e+00 0.000000e+00 2.286802e+04 # SC2-CA31 type=non-native eps=0.002390 sigma=3.817121
pair_coeff 3 59 0.000000e+00 0.000000e+00 1.058342e+05 # SC2-SC31 type=non-native eps=0.002390 sigma=4.336963
pair_coeff 3 60 0.000000e+00 0.000000e+00 2.286802e+04 # SC2-CA32 type=non-native eps=0.002390 sigma=3.817121
pair_coeff 3 61 0.000000e+00 0.000000e+00 5.496954e+04 # SC2-SC32 type=non-native eps=0.002390 sigma=4.106549
pair_coeff 3 62 0.000000e+00 0.000000e+00 2.286802e+04 # SC2-CA33 type=non-native eps=0.002390 sigma=3.817121
pair_coeff 3 63 0.000000e+00 0.000000e+00 5.795236e+03 # SC2-SC33 type=non-native eps=0.002390 sigma=3.404522
pair_coeff 3 64 0.000000e+00 0.000000e+00 2.286802e+04 # SC2-CA34 type=non-native eps=0.002390 sigma=3.817121
pair_coeff 3 65 0.000000e+00 0.000000e+00 7.782318e+04 # SC2-SC34 type=non-native eps=0.002390 sigma=4.227263
pair_coeff 3 66 0.000000e+00 0.000000e+00 2.286802e+04 # SC2-CA35 type=non-native eps=0.002390 sigma=3.817121
pair_coeff 3 67 0.000000e+00 0.000000e+00 1.721862e+03 # SC2-SC35 type=non-native eps=0.002390 sigma=3.077042
pair_coeff 3 68 0.000000e+00 0.000000e+00 2.286802e+04 # SC2-CA36 type=non-native eps=0.002390 sigma=3.817121
pair_coeff 3 69 0.000000e+00 0.000000e+00 2.286802e+04 # SC2-SC36 type=non-native eps=0.002390 sigma=3.817121
pair_coeff 3 70 0.000000e+00 0.000000e+00 2.286802e+04 # SC2-CA37 type=non-native eps=0.002390 sigma=3.817121
pair_coeff 3 71 0.000000e+00 0.000000e+00 3.680656e+04 # SC2-SC37 type=non-native eps=0.002390 sigma=3.971555
pair_coeff 3 72 0.000000e+00 0.000000e+00 2.286802e+04 # SC2-CA38 type=non-native eps=0.002390 sigma=3.817121
pair_coeff 3 73 0.000000e+00 0.000000e+00 1.268711e+04 # SC2-SC38 type=non-native eps=0.002390 sigma=3.634241
pair_coeff 3 74 0.000000e+00 0.000000e+00 2.286802e+04 # SC2-CA39 type=non-native eps=0.002390 sigma=3.817121
pair_coeff 3 75 0.000000e+00 0.000000e+00 1.268711e+04 # SC2-SC39 type=non-native eps=0.002390 sigma=3.634241
pair_coeff 3 76 0.000000e+00 0.000000e+00 2.286802e+04 # SC2-CA40 type=non-native eps=0.002390 sigma=3.817121
pair_coeff 3 77 0.000000e+00 0.000000e+00 7.782318e+04 # SC2-SC40 type=non-native eps=0.002390 sigma=4.227263
pair_coeff 3 78 0.000000e+00 0.000000e+00 2.286802e+04 # SC2-CA41 type=non-native eps=0.002390 sigma=3.817121
pair_coeff 3 79 0.000000e+00 0.000000e+00 1.721862e+03 # SC2-SC41 type=non-native eps=0.002390 sigma=3.077042
pair_coeff 3 80 0.000000e+00 0.000000e+00 2.286802e+04 # SC2-CA42 type=non-native eps=0.002390 sigma=3.817121
pair_coeff 3 81 -4.565032e+03 0.000000e+00 3.269798e+07 # SC2-SC42 type=native eps=0.159333 sigma=4.928157
pair_coeff 3 82 -8.644021e+03 0.000000e+00 1.563161e+08 # SC2-CA43 type=native eps=0.119500 sigma=5.750686
pair_coeff 3 83 0.000000e+00 0.000000e+00 3.680656e+04 # SC2-SC43 type=non-native eps=0.002390 sigma=3.971555
pair_coeff 3 84 0.000000e+00 0.000000e+00 2.286802e+04 # SC2-CA44 type=non-native eps=0.002390 sigma=3.817121
pair_coeff 3 85 -2.418568e+03 0.000000e+00 1.019782e+07 # SC2-SC44 type=native eps=0.143400 sigma=4.511592
pair_coeff 3 86 0.000000e+00 0.000000e+00 2.286802e+04 # SC2-CA45 type=non-native eps=0.002390 sigma=3.817121
pair_coeff 3 87 0.000000e+00 0.000000e+00 2.286802e+04 # SC2-SC45 type=non-native eps=0.002390 sigma=3.817121
pair_coeff 3 88 0.000000e+00 0.000000e+00 2.286802e+04 # SC2-CA46 type=non-native eps=0.002390 sigma=3.817121
pair_coeff 3 89 0.000000e+00 0.000000e+00 1.268711e+04 # SC2-SC46 type=non-native eps=0.002390 sigma=3.634241
pair_coeff 3 90 0.000000e+00 0.000000e+00 2.286802e+04 # SC2-CA47 type=non-native eps=0.002390 sigma=3.817121
pair_coeff 3 91 0.000000e+00 0.000000e+00 1.721862e+03 # SC2-SC47 type=non-native eps=0.002390 sigma=3.077042
pair_coeff 3 92 0.000000e+00 0.000000e+00 2.286802e+04 # SC2-CA48 type=non-native eps=0.002390 sigma=3.817121
pair_coeff 3 93 0.000000e+00 0.000000e+00 2.286802e+04 # SC2-CA49 type=non-native eps=0.002390 sigma=3.817121
pair_coeff 3 94 0.000000e+00 0.000000e+00 1.268711e+04 # SC2-SC49 type=non-native eps=0.002390 sigma=3.634241
pair_coeff 3 95 0.000000e+00 0.000000e+00 2.286802e+04 # SC2-CA50 type=non-native eps=0.002390 sigma=3.817121
pair_coeff 3 96 0.000000e+00 0.000000e+00 2.286802e+04 # SC2-SC50 type=non-native eps=0.002390 sigma=3.817121
pair_coeff 3 97 0.000000e+00 0.000000e+00 2.286802e+04 # SC2-CA51 type=non-native eps=0.002390 sigma=3.817121
pair_coeff 3 98 0.000000e+00 0.000000e+00 1.058342e+05 # SC2-SC51 type=non-native eps=0.002390 sigma=4.336963
pair_coeff 3 99 0.000000e+00 0.000000e+00 2.286802e+04 # SC2-CA52 type=non-native eps=0.002390 sigma=3.817121
pair_coeff 3 100 -7.908483e+03 0.000000e+00 6.542270e+07 # SC2-SC52 type=native eps=0.239000 sigma=5.047902
pair_coeff 3 101 0.000000e+00 0.000000e+00 2.286802e+04 # SC2-CA53 type=non-native eps=0.002390 sigma=3.817121
pair_coeff 3 102 0.000000e+00 0.000000e+00 2.286802e+04 # SC2-SC53 type=non-native eps=0.002390 sigma=3.817121
pair_coeff 3 103 0.000000e+00 0.000000e+00 2.286802e+04 # SC2-CA54 type=non-native eps=0.002390 sigma=3.817121
pair_coeff 3 104 0.000000e+00 0.000000e+00 2.286802e+04 # SC2-SC54 type=non-native eps=0.002390 sigma=3.817121
pair_coeff 3 105 0.000000e+00 0.000000e+00 2.286802e+04 # SC2-CA55 type=non-native eps=0.002390 sigma=3.817121
pair_coeff 3 106 0.000000e+00 0.000000e+00 1.268711e+04 # SC2-SC55 type=non-native eps=0.002390 sigma=3.634241
pair_coeff 3 107 0.000000e+00 0.000000e+00 2.286802e+04 # SC2-CA56 type=non-native eps=0.002390 sigma=3.817121
pair_coeff 3 108 0.000000e+00 0.000000e+00 3.680656e+04 # SC2-SC56 type=non-native eps=0.002390 sigma=3.971555
pair_coeff 3 109 0.000000e+00 0.000000e+00 2.286802e+04 # SC2-CA57 type=non-native eps=0.002390 sigma=3.817121
pair_coeff 3 110 0.000000e+00 0.000000e+00 2.286802e+04 # SC2-SC57 type=non-native eps=0.002390 sigma=3.817121
pair_coeff 3 111 0.000000e+00 0.000000e+00 2.286802e+04 # SC2-CA58 type=non-native eps=0.002390 sigma=3.817121
pair_coeff 3 112 0.000000e+00 0.000000e+00 2.286802e+04 # SC2-CA59 type=non-native eps=0.002390 sigma=3.817121
pair_coeff 3 113 0.000000e+00 0.000000e+00 7.782318e+04 # SC2-SC59 type=non-native eps=0.002390 sigma=4.227263
pair_coeff 3 114 0.000000e+00 0.000000e+00 2.286802e+04 # SC2-CA60 type=non-native eps=0.002390 sigma=3.817121
pair_coeff 3 115 0.000000e+00 0.000000e+00 1.268711e+04 # SC2-SC60 type=non-native eps=0.002390 sigma=3.634241
pair_coeff 3 116 0.000000e+00 0.000000e+00 2.286802e+04 # SC2-CA61 type=non-native eps=0.002390 sigma=3.817121
pair_coeff 3 117 0.000000e+00 0.000000e+00 1.268711e+04 # SC2-SC61 type=non-native eps=0.002390 sigma=3.634241
pair_coeff 3 118 0.000000e+00 0.000000e+00 2.286802e+04 # SC2-CA62 type=non-native eps=0.002390 sigma=3.817121
pair_coeff 3 119 0.000000e+00 0.000000e+00 5.795236e+03 # SC2-SC62 type=non-native eps=0.002390 sigma=3.404522
pair_coeff 3 120 0.000000e+00 0.000000e+00 2.286802e+04 # SC2-CA63 type=non-native eps=0.002390 sigma=3.817121
pair_coeff 3 121 0.000000e+00 0.000000e+00 1.268711e+04 # SC2-SC63 type=non-native eps=0.002390 sigma=3.634241
pair_coeff 3 122 0.000000e+00 0.000000e+00 2.286802e+04 # SC2-CA64 type=non-native eps=0.002390 sigma=3.817121
pair_coeff 3 123 0.000000e+00 0.000000e+00 3.680656e+04 # SC2-SC64 type=non-native eps=0.002390 sigma=3.971555
pair_coeff 3 124 0.000000e+00 0.000000e+00 2.286802e+04 # SC2-CA65 type=non-native eps=0.002390 sigma=3.817121
pair_coeff 3 125 0.000000e+00 0.000000e+00 1.268711e+04 # SC2-SC65 type=non-native eps=0.002390 sigma=3.634241
pair_coeff 3 126 0.000000e+00 0.000000e+00 2.286802e+04 # SC2-CA66 type=non-native eps=0.002390 sigma=3.817121
pair_coeff 3 127 0.000000e+00 0.000000e+00 5.496954e+04 # SC2-SC66 type=non-native eps=0.002390 sigma=4.106549
pair_coeff 3 128 0.000000e+00 0.000000e+00 2.286802e+04 # SC2-CA67 type=non-native eps=0.002390 sigma=3.817121
pair_coeff 3 129 0.000000e+00 0.000000e+00 2.286802e+04 # SC2-SC67 type=non-native eps=0.002390 sigma=3.817121
pair_coeff 3 130 0.000000e+00 0.000000e+00 2.286802e+04 # SC2-CA68 type=non-native eps=0.002390 sigma=3.817121
pair_coeff 3 131 0.000000e+00 0.000000e+00 2.286802e+04 # SC2-SC68 type=non-native eps=0.002390 sigma=3.817121
pair_coeff 3 132 0.000000e+00 0.000000e+00 2.286802e+04 # SC2-CA69 type=non-native eps=0.002390 sigma=3.817121
pair_coeff 3 133 0.000000e+00 0.000000e+00 2.286802e+04 # SC2-SC69 type=non-native eps=0.002390 sigma=3.817121
pair_coeff 3 134 0.000000e+00 0.000000e+00 2.286802e+04 # SC2-CA70 type=non-native eps=0.002390 sigma=3.817121
pair_coeff 3 135 0.000000e+00 0.000000e+00 5.795236e+03 # SC2-SC70 type=non-native eps=0.002390 sigma=3.404522
pair_coeff 3 136 0.000000e+00 0.000000e+00 2.286802e+04 # SC2-CA71 type=non-native eps=0.002390 sigma=3.817121
pair_coeff 3 137 0.000000e+00 0.000000e+00 1.268711e+04 # SC2-SC71 type=non-native eps=0.002390 sigma=3.634241
pair_coeff 3 138 0.000000e+00 0.000000e+00 2.286802e+04 # SC2-CA72 type=non-native eps=0.002390 sigma=3.817121
pair_coeff 3 139 0.000000e+00 0.000000e+00 7.782318e+04 # SC2-SC72 type=non-native eps=0.002390 sigma=4.227263
pair_coeff 3 140 0.000000e+00 0.000000e+00 2.286802e+04 # SC2-CA73 type=non-native eps=0.002390 sigma=3.817121
pair_coeff 3 141 0.000000e+00 0.000000e+00 5.496954e+04 # SC2-SC73 type=non-native eps=0.002390 sigma=4.106549
pair_coeff 3 142 0.000000e+00 0.000000e+00 2.286802e+04 # SC2-CA74 type=non-native eps=0.002390 sigma=3.817121
pair_coeff 3 143 0.000000e+00 0.000000e+00 2.286802e+04 # SC2-SC74 type=non-native eps=0.002390 sigma=3.817121
pair_coeff 3 144 0.000000e+00 0.000000e+00 2.286802e+04 # SC2-CA75 type=non-native eps=0.002390 sigma=3.817121
pair_coeff 3 145 0.000000e+00 0.000000e+00 3.680656e+04 # SC2-SC75 type=non-native eps=0.002390 sigma=3.971555
pair_coeff 3 146 0.000000e+00 0.000000e+00 2.286802e+04 # SC2-CA76 type=non-native eps=0.002390 sigma=3.817121
pair_coeff 3 147 0.000000e+00 0.000000e+00 1.268711e+04 # SC2-SC76 type=non-native eps=0.002390 sigma=3.634241
pair_coeff 3 148 0.000000e+00 0.000000e+00 2.286802e+04 # SC2-CA77 type=non-native eps=0.002390 sigma=3.817121
pair_coeff 3 149 0.000000e+00 0.000000e+00 5.496954e+04 # SC2-SC77 type=non-native eps=0.002390 sigma=4.106549
pair_coeff 3 150 0.000000e+00 0.000000e+00 2.286802e+04 # SC2-CA78 type=non-native eps=0.002390 sigma=3.817121
pair_coeff 3 151 0.000000e+00 0.000000e+00 2.286802e+04 # SC2-SC78 type=non-native eps=0.002390 sigma=3.817121
pair_coeff 3 152 0.000000e+00 0.000000e+00 2.286802e+04 # SC2-CA79 type=non-native eps=0.002390 sigma=3.817121
pair_coeff 3 153 0.000000e+00 0.000000e+00 3.680656e+04 # SC2-SC79 type=non-native eps=0.002390 sigma=3.971555
pair_coeff 3 154 0.000000e+00 0.000000e+00 2.286802e+04 # SC2-CA80 type=non-native eps=0.002390 sigma=3.817121
pair_coeff 3 155 0.000000e+00 0.000000e+00 7.782318e+04 # SC2-SC80 type=non-native eps=0.002390 sigma=4.227263
pair_coeff 3 156 0.000000e+00 0.000000e+00 2.286802e+04 # SC2-CA81 type=non-native eps=0.002390 sigma=3.817121
pair_coeff 3 157 0.000000e+00 0.000000e+00 3.680656e+04 # SC2-SC81 type=non-native eps=0.002390 sigma=3.971555
pair_coeff 3 158 0.000000e+00 0.000000e+00 2.286802e+04 # SC2-CA82 type=non-native eps=0.002390 sigma=3.817121
pair_coeff 3 159 0.000000e+00 0.000000e+00 1.721862e+03 # SC2-SC82 type=non-native eps=0.002390 sigma=3.077042
pair_coeff 3 160 0.000000e+00 0.000000e+00 2.286802e+04 # SC2-CA83 type=non-native eps=0.002390 sigma=3.817121
pair_coeff 3 161 0.000000e+00 0.000000e+00 7.782318e+04 # SC2-SC83 type=non-native eps=0.002390 sigma=4.227263
pair_coeff 3 162 0.000000e+00 0.000000e+00 2.286802e+04 # SC2-CA84 type=non-native eps=0.002390 sigma=3.817121
pair_coeff 3 163 0.000000e+00 0.000000e+00 5.795236e+03 # SC2-SC84 type=non-native eps=0.002390 sigma=3.404522
pair_coeff 3 164 0.000000e+00 0.000000e+00 2.286802e+04 # SC2-CA85 type=non-native eps=0.002390 sigma=3.817121
pair_coeff 3 165 0.000000e+00 0.000000e+00 5.795236e+03 # SC2-SC85 type=non-native eps=0.002390 sigma=3.404522
pair_coeff 3 166 0.000000e+00 0.000000e+00 2.286802e+04 # SC2-CA86 type=non-native eps=0.002390 sigma=3.817121
pair_coeff 3 167 0.000000e+00 0.000000e+00 7.782318e+04 # SC2-SC86 type=non-native eps=0.002390 sigma=4.227263
pair_coeff 3 168 0.000000e+00 0.000000e+00 2.286802e+04 # SC2-CA87 type=non-native eps=0.002390 sigma=3.817121
pair_coeff 3 169 0.000000e+00 0.000000e+00 3.680656e+04 # SC2-SC87 type=non-native eps=0.002390 sigma=3.971555
pair_coeff 3 170 0.000000e+00 0.000000e+00 2.286802e+04 # SC2-CA88 type=non-native eps=0.002390 sigma=3.817121
pair_coeff 3 171 0.000000e+00 0.000000e+00 2.286802e+04 # SC2-SC88 type=non-native eps=0.002390 sigma=3.817121
pair_coeff 3 172 0.000000e+00 0.000000e+00 2.286802e+04 # SC2-CA89 type=non-native eps=0.002390 sigma=3.817121
pair_coeff 3 173 0.000000e+00 0.000000e+00 1.058342e+05 # SC2-SC89 type=non-native eps=0.002390 sigma=4.336963
pair_coeff 3 174 0.000000e+00 0.000000e+00 2.286802e+04 # SC2-CA90 type=non-native eps=0.002390 sigma=3.817121
pair_coeff 3 175 0.000000e+00 0.000000e+00 1.721862e+03 # SC2-SC90 type=non-native eps=0.002390 sigma=3.077042
pair_coeff 3 176 0.000000e+00 0.000000e+00 2.286802e+04 # SC2-CA91 type=non-native eps=0.002390 sigma=3.817121
pair_coeff 3 177 0.000000e+00 0.000000e+00 1.268711e+04 # SC2-SC91 type=non-native eps=0.002390 sigma=3.634241
pair_coeff 3 178 0.000000e+00 0.000000e+00 2.286802e+04 # SC2-CA92 type=non-native eps=0.002390 sigma=3.817121
pair_coeff 3 179 0.000000e+00 0.000000e+00 1.268711e+04 # SC2-SC92 type=non-native eps=0.002390 sigma=3.634241
pair_coeff 3 180 0.000000e+00 0.000000e+00 2.286802e+04 # SC2-CA93 type=non-native eps=0.002390 sigma=3.817121
pair_coeff 3 181 0.000000e+00 0.000000e+00 1.792032e+05 # SC2-SC93 type=non-native eps=0.002390 sigma=4.531538
pair_coeff 3 182 0.000000e+00 0.000000e+00 2.286802e+04 # SC2-CA94 type=non-native eps=0.002390 sigma=3.817121
pair_coeff 3 183 0.000000e+00 0.000000e+00 3.680656e+04 # SC2-SC94 type=non-native eps=0.002390 sigma=3.971555
pair_coeff 3 184 0.000000e+00 0.000000e+00 2.286802e+04 # SC2-CA95 type=non-native eps=0.002390 sigma=3.817121
pair_coeff 3 185 0.000000e+00 0.000000e+00 2.286802e+04 # SC2-CA96 type=non-native eps=0.002390 sigma=3.817121
pair_coeff 3 186 0.000000e+00 0.000000e+00 1.268711e+04 # SC2-SC96 type=non-native eps=0.002390 sigma=3.634241
pair_coeff 3 187 0.000000e+00 0.000000e+00 2.286802e+04 # SC2-CA97 type=non-native eps=0.002390 sigma=3.817121
pair_coeff 3 188 0.000000e+00 0.000000e+00 2.286802e+04 # SC2-SC97 type=non-native eps=0.002390 sigma=3.817121
pair_coeff 3 189 0.000000e+00 0.000000e+00 2.286802e+04 # SC2-CA98 type=non-native eps=0.002390 sigma=3.817121
pair_coeff 3 190 0.000000e+00 0.000000e+00 1.268711e+04 # SC2-SC98 type=non-native eps=0.002390 sigma=3.634241
pair_coeff 3 191 0.000000e+00 0.000000e+00 2.286802e+04 # SC2-CA99 type=non-native eps=0.002390 sigma=3.817121
pair_coeff 3 192 0.000000e+00 0.000000e+00 2.286802e+04 # SC2-SC99 type=non-native eps=0.002390 sigma=3.817121
pair_coeff 3 193 0.000000e+00 0.000000e+00 2.286802e+04 # SC2-CA100 type=non-native eps=0.002390 sigma=3.817121
pair_coeff 3 194 0.000000e+00 0.000000e+00 5.795236e+03 # SC2-SC100 type=non-native eps=0.002390 sigma=3.404522
pair_coeff 3 195 0.000000e+00 0.000000e+00 2.286802e+04 # SC2-CA101 type=non-native eps=0.002390 sigma=3.817121
pair_coeff 3 196 0.000000e+00 0.000000e+00 3.680656e+04 # SC2-SC101 type=non-native eps=0.002390 sigma=3.971555
pair_coeff 3 197 0.000000e+00 0.000000e+00 2.286802e+04 # SC2-CA102 type=non-native eps=0.002390 sigma=3.817121
pair_coeff 3 198 0.000000e+00 0.000000e+00 5.795236e+03 # SC2-SC102 type=non-native eps=0.002390 sigma=3.404522
pair_coeff 3 199 0.000000e+00 0.000000e+00 2.286802e+04 # SC2-CA103 type=non-native eps=0.002390 sigma=3.817121
pair_coeff 3 200 0.000000e+00 0.000000e+00 1.268711e+04 # SC2-SC103 type=non-native eps=0.002390 sigma=3.634241
pair_coeff 3 201 0.000000e+00 0.000000e+00 2.286802e+04 # SC2-CA104 type=non-native eps=0.002390 sigma=3.817121
pair_coeff 3 202 0.000000e+00 0.000000e+00 5.795236e+03 # SC2-SC104 type=non-native eps=0.002390 sigma=3.404522
pair_coeff 3 203 0.000000e+00 0.000000e+00 2.286802e+04 # SC2-CA105 type=non-native eps=0.002390 sigma=3.817121
pair_coeff 3 204 0.000000e+00 0.000000e+00 3.680656e+04 # SC2-SC105 type=non-native eps=0.002390 sigma=3.971555
pair_coeff 3 205 0.000000e+00 0.000000e+00 2.286802e+04 # SC2-CA106 type=non-native eps=0.002390 sigma=3.817121
pair_coeff 3 206 0.000000e+00 0.000000e+00 2.286802e+04 # SC2-SC106 type=non-native eps=0.002390 sigma=3.817121
pair_coeff 3 207 0.000000e+00 0.000000e+00 2.286802e+04 # SC2-CA107 type=non-native eps=0.002390 sigma=3.817121
pair_coeff 3 208 0.000000e+00 0.000000e+00 5.795236e+03 # SC2-SC107 type=non-native eps=0.002390 sigma=3.404522
pair_coeff 4 4 0.000000e+00 0.000000e+00 4.009755e+04 # CA3-CA3 type=non-native eps=0.002390 sigma=4.000000
pair_coeff 4 5 0.000000e+00 0.000000e+00 4.009755e+04 # CA3-SC3 type=non-native eps=0.002390 sigma=4.000000
pair_coeff 4 6 0.000000e+00 0.000000e+00 4.009755e+04 # CA3-CA4 type=non-native eps=0.002390 sigma=4.000000
pair_coeff 4 7 0.000000e+00 0.000000e+00 4.009755e+04 # CA3-SC4 type=non-native eps=0.002390 sigma=4.000000
pair_coeff 4 8 0.000000e+00 0.000000e+00 4.009755e+04 # CA3-CA5 type=non-native eps=0.002390 sigma=4.000000
pair_coeff 4 9 0.000000e+00 0.000000e+00 3.442571e+03 # CA3-SC5 type=non-native eps=0.002390 sigma=3.259921
pair_coeff 4 10 0.000000e+00 0.000000e+00 4.009755e+04 # CA3-CA6 type=non-native eps=0.002390 sigma=4.000000
pair_coeff 4 11 0.000000e+00 0.000000e+00 1.085818e+04 # CA3-SC6 type=non-native eps=0.002390 sigma=3.587401
pair_coeff 4 12 0.000000e+00 0.000000e+00 4.009755e+04 # CA3-CA7 type=non-native eps=0.002390 sigma=4.000000
pair_coeff 4 13 0.000000e+00 0.000000e+00 2.286802e+04 # CA3-SC7 type=non-native eps=0.002390 sigma=3.817121
pair_coeff 4 14 0.000000e+00 0.000000e+00 4.009755e+04 # CA3-CA8 type=non-native eps=0.002390 sigma=4.000000
pair_coeff 4 15 0.000000e+00 0.000000e+00 6.317440e+04 # CA3-SC8 type=non-native eps=0.002390 sigma=4.154435
pair_coeff 4 16 0.000000e+00 0.000000e+00 4.009755e+04 # CA3-CA9 type=non-native eps=0.002390 sigma=4.000000
pair_coeff 4 17 0.000000e+00 0.000000e+00 6.317440e+04 # CA3-SC9 type=non-native eps=0.002390 sigma=4.154435
pair_coeff 4 18 0.000000e+00 0.000000e+00 4.009755e+04 # CA3-CA10 type=non-native eps=0.002390 sigma=4.000000
pair_coeff 4 19 0.000000e+00 0.000000e+00 6.317440e+04 # CA3-SC10 type=non-native eps=0.002390 sigma=4.154435
pair_coeff 4 20 0.000000e+00 0.000000e+00 4.009755e+04 # CA3-CA11 type=non-native eps=0.002390 sigma=4.000000
pair_coeff 4 21 0.000000e+00 0.000000e+00 4.009755e+04 # CA3-CA12 type=non-native eps=0.002390 sigma=4.000000
pair_coeff 4 22 0.000000e+00 0.000000e+00 2.286802e+04 # CA3-SC12 type=non-native eps=0.002390 sigma=3.817121
pair_coeff 4 23 0.000000e+00 0.000000e+00 4.009755e+04 # CA3-CA13 type=non-native eps=0.002390 sigma=4.000000
pair_coeff 4 24 0.000000e+00 0.000000e+00 1.293687e+05 # CA3-SC13 type=non-native eps=0.002390 sigma=4.410142
pair_coeff 4 25 0.000000e+00 0.000000e+00 4.009755e+04 # CA3-CA14 type=non-native eps=0.002390 sigma=4.000000
pair_coeff 4 26 0.000000e+00 0.000000e+00 1.293687e+05 # CA3-SC14 type=non-native eps=0.002390 sigma=4.410142
pair_coeff 4 27 0.000000e+00 0.000000e+00 4.009755e+04 # CA3-CA15 type=non-native eps=0.002390 sigma=4.000000
pair_coeff 4 28 0.000000e+00 0.000000e+00 3.442571e+03 # CA3-SC15 type=non-native eps=0.002390 sigma=3.259921
pair_coeff 4 29 0.000000e+00 0.000000e+00 4.009755e+04 # CA3-CA16 type=non-native eps=0.002390 sigma=4.000000
pair_coeff 4 30 0.000000e+00 0.000000e+00 4.009755e+04 # CA3-SC16 type=non-native eps=0.002390 sigma=4.000000
pair_coeff 4 31 0.000000e+00 0.000000e+00 4.009755e+04 # CA3-CA17 type=non-native eps=0.002390 sigma=4.000000
pair_coeff 4 32 0.000000e+00 0.000000e+00 4.009755e+04 # CA3-SC17 type=non-native eps=0.002390 sigma=4.000000
pair_coeff 4 33 0.000000e+00 0.000000e+00 4.009755e+04 # CA3-CA18 type=non-native eps=0.002390 sigma=4.000000
pair_coeff 4 34 0.000000e+00 0.000000e+00 1.293687e+05 # CA3-SC18 type=non-native eps=0.002390 sigma=4.410142
pair_coeff 4 35 0.000000e+00 0.000000e+00 4.009755e+04 # CA3-CA19 type=non-native eps=0.002390 sigma=4.000000
pair_coeff 4 36 0.000000e+00 0.000000e+00 3.442571e+03 # CA3-SC19 type=non-native eps=0.002390 sigma=3.259921
pair_coeff 4 37 0.000000e+00 0.000000e+00 4.009755e+04 # CA3-CA20 type=non-native eps=0.002390 sigma=4.000000
pair_coeff 4 38 0.000000e+00 0.000000e+00 2.286802e+04 # CA3-SC20 type=non-native eps=0.002390 sigma=3.817121
pair_coeff 4 39 0.000000e+00 0.000000e+00 4.009755e+04 # CA3-CA21 type=non-native eps=0.002390 sigma=4.000000
pair_coeff 4 40 0.000000e+00 0.000000e+00 4.009755e+04 # CA3-CA22 type=non-native eps=0.002390 sigma=4.000000
pair_coeff 4 41 0.000000e+00 0.000000e+00 6.317440e+04 # CA3-SC22 type=non-native eps=0.002390 sigma=4.154435
pair_coeff 4 42 0.000000e+00 0.000000e+00 4.009755e+04 # CA3-CA23 type=non-native eps=0.002390 sigma=4.000000
pair_coeff 4 43 0.000000e+00 0.000000e+00 1.737309e+05 # CA3-SC23 type=non-native eps=0.002390 sigma=4.519842
pair_coeff 4 44 0.000000e+00 0.000000e+00 4.009755e+04 # CA3-CA24 type=non-native eps=0.002390 sigma=4.000000
pair_coeff 4 45 0.000000e+00 0.000000e+00 4.009755e+04 # CA3-SC24 type=non-native eps=0.002390 sigma=4.000000
pair_coeff 4 46 0.000000e+00 0.000000e+00 4.009755e+04 # CA3-CA25 type=non-native eps=0.002390 sigma=4.000000
pair_coeff 4 47 0.000000e+00 0.000000e+00 6.317440e+04 # CA3-SC25 type=non-native eps=0.002390 sigma=4.154435
pair_coeff 4 48 0.000000e+00 0.000000e+00 4.009755e+04 # CA3-CA26 type=non-native eps=0.002390 sigma=4.000000
pair_coeff 4 49 0.000000e+00 0.000000e+00 3.442571e+03 # CA3-SC26 type=non-native eps=0.002390 sigma=3.259921
pair_coeff 4 50 0.000000e+00 0.000000e+00 4.009755e+04 # CA3-CA27 type=non-native eps=0.002390 sigma=4.000000
pair_coeff 4 51 0.000000e+00 0.000000e+00 1.085818e+04 # CA3-SC27 type=non-native eps=0.002390 sigma=3.587401
pair_coeff 4 52 0.000000e+00 0.000000e+00 4.009755e+04 # CA3-CA28 type=non-native eps=0.002390 sigma=4.000000
pair_coeff 4 53 0.000000e+00 0.000000e+00 4.009755e+04 # CA3-SC28 type=non-native eps=0.002390 sigma=4.000000
pair_coeff 4 54 0.000000e+00 0.000000e+00 4.009755e+04 # CA3-CA29 type=non-native eps=0.002390 sigma=4.000000
pair_coeff 4 55 0.000000e+00 0.000000e+00 4.009755e+04 # CA3-SC29 type=non-native eps=0.002390 sigma=4.000000
pair_coeff 4 56 0.000000e+00 0.000000e+00 4.009755e+04 # CA3-CA30 type=non-native eps=0.002390 sigma=4.000000
pair_coeff 4 57 0.000000e+00 0.000000e+00 4.009755e+04 # CA3-SC30 type=non-native eps=0.002390 sigma=4.000000
pair_coeff 4 58 0.000000e+00 0.000000e+00 4.009755e+04 # CA3-CA31 type=non-native eps=0.002390 sigma=4.000000
pair_coeff 4 59 0.000000e+00 0.000000e+00 1.737309e+05 # CA3-SC31 type=non-native eps=0.002390 sigma=4.519842
pair_coeff 4 60 0.000000e+00 0.000000e+00 4.009755e+04 # CA3-CA32 type=non-native eps=0.002390 sigma=4.000000
pair_coeff 4 61 0.000000e+00 0.000000e+00 9.272377e+04 # CA3-SC32 type=non-native eps=0.002390 sigma=4.289428
pair_coeff 4 62 0.000000e+00 0.000000e+00 4.009755e+04 # CA3-CA33 type=non-native eps=0.002390 sigma=4.000000
pair_coeff 4 63 0.000000e+00 0.000000e+00 1.085818e+04 # CA3-SC33 type=non-native eps=0.002390 sigma=3.587401
pair_coeff 4 64 0.000000e+00 0.000000e+00 4.009755e+04 # CA3-CA34 type=non-native eps=0.002390 sigma=4.000000
pair_coeff 4 65 0.000000e+00 0.000000e+00 1.293687e+05 # CA3-SC34 type=non-native eps=0.002390 sigma=4.410142
pair_coeff 4 66 0.000000e+00 0.000000e+00 4.009755e+04 # CA3-CA35 type=non-native eps=0.002390 sigma=4.000000
pair_coeff 4 67 0.000000e+00 0.000000e+00 3.442571e+03 # CA3-SC35 type=non-native eps=0.002390 sigma=3.259921
pair_coeff 4 68 0.000000e+00 0.000000e+00 4.009755e+04 # CA3-CA36 type=non-native eps=0.002390 sigma=4.000000
pair_coeff 4 69 0.000000e+00 0.000000e+00 4.009755e+04 # CA3-SC36 type=non-native eps=0.002390 sigma=4.000000
pair_coeff 4 70 0.000000e+00 0.000000e+00 4.009755e+04 # CA3-CA37 type=non-native eps=0.002390 sigma=4.000000
pair_coeff 4 71 0.000000e+00 0.000000e+00 6.317440e+04 # CA3-SC37 type=non-native eps=0.002390 sigma=4.154435
pair_coeff 4 72 0.000000e+00 0.000000e+00 4.009755e+04 # CA3-CA38 type=non-native eps=0.002390 sigma=4.000000
pair_coeff 4 73 0.000000e+00 0.000000e+00 2.286802e+04 # CA3-SC38 type=non-native eps=0.002390 sigma=3.817121
pair_coeff 4 74 0.000000e+00 0.000000e+00 4.009755e+04 # CA3-CA39 type=non-native eps=0.002390 sigma=4.000000
pair_coeff 4 75 0.000000e+00 0.000000e+00 2.286802e+04 # CA3-SC39 type=non-native eps=0.002390 sigma=3.817121
pair_coeff 4 76 0.000000e+00 0.000000e+00 4.009755e+04 # CA3-CA40 type=non-native eps=0.002390 sigma=4.000000
pair_coeff 4 77 0.000000e+00 0.000000e+00 1.293687e+05 # CA3-SC40 type=non-native eps=0.002390 sigma=4.410142
pair_coeff 4 78 -2.233246e+05 0.000000e+00 5.216935e+10 # CA3-CA41 type=native eps=0.239000 sigma=8.808828
pair_coeff 4 79 0.000000e+00 0.000000e+00 3.442571e+03 # CA3-SC41 type=non-native eps=0.002390 sigma=3.259921
pair_coeff 4 80 -2.587336e+03 0.000000e+00 3.501208e+07 # CA3-CA42 type=native eps=0.047800 sigma=5.479394
pair_coeff 4 81 -3.713322e+04 0.000000e+00 1.802923e+09 # CA3-SC42 type=native eps=0.191200 sigma=6.779653
pair_coeff 4 82 -3.455263e+03 0.000000e+00 4.058707e+07 # CA3-CA43 type=native eps=0.073538 sigma=5.351671
pair_coeff 4 83 -3.610651e+03 0.000000e+00 1.772787e+08 # CA3-SC43 type=native eps=0.018385 sigma=6.792300
pair_coeff 4 84 0.000000e+00 0.000000e+00 4.009755e+04 # CA3-CA44 type=non-native eps=0.002390 sigma=4.000000
pair_coeff 4 85 0.000000e+00 0.000000e+00 6.317440e+04 # CA3-SC44 type=non-native eps=0.002390 sigma=4.154435
pair_coeff 4 86 0.000000e+00 0.000000e+00 4.009755e+04 # CA3-CA45 type=non-native eps=0.002390 sigma=4.000000
pair_coeff 4 87 0.000000e+00 0.000000e+00 4.009755e+04 # CA3-SC45 type=non-native eps=0.002390 sigma=4.000000
pair_coeff 4 88 0.000000e+00 0.000000e+00 4.009755e+04 # CA3-CA46 type=non-native eps=0.002390 sigma=4.000000
pair_coeff 4 89 0.000000e+00 0.000000e+00 2.286802e+04 # CA3-SC46 type=non-native eps=0.002390 sigma=3.817121
pair_coeff 4 90 0.000000e+00 0.000000e+00 4.009755e+04 # CA3-CA47 type=non-native eps=0.002390 sigma=4.000000
pair_coeff 4 91 0.000000e+00 0.000000e+00 3.442571e+03 # CA3-SC47 type=non-native eps=0.002390 sigma=3.259921
[...]
 4787000    124.38697    33.216373   -28.376884    25.105556      29.9478    21.278448 
 4788000    126.62394    37.238458   -27.388702    26.996418    27.597388    24.827337 
 4789000    113.61497    38.824307   -27.869104    25.120111    33.700194    22.420104 
 4790000    119.73827    31.813019   -29.488561    26.387014    29.674527    19.290206 
 4791000    125.12233    34.251938    -26.79895    26.753516    30.444767    22.083575 
 4792000    115.98697    34.515178   -25.703826    27.262669    29.821473    21.569924 
 4793000    116.66384    28.374035   -27.513897     26.61252    26.079925    21.113128 
 4794000     118.3944    30.968725   -26.656695    25.074427    28.725758     23.73425 
 4795000    127.20868     38.07343   -25.279818    25.892174    30.725007    25.578645 
 4796000    125.33017    35.686817   -24.170722    23.630424    27.728719    25.190347 
 4797000    118.20302    41.607574    -22.68439    23.798661    31.316508    24.968327 
 4798000    120.34347    31.494806   -25.522394    21.370941    29.908895    21.934192 
 4799000    107.04315    36.568327   -25.998263    25.464583    29.316541    24.849303 
 4800000    123.24778    33.105391   -29.093046    23.619699      33.7517    19.867195 
 4801000    130.03747     34.14541   -26.089322    23.293958    28.915477    23.482633 
 4802000    131.60736     33.92341   -26.715743     21.85163     33.34781    20.676494 
 4803000      127.652    38.663037   -26.330048    28.550962    28.029029    23.450567 
 4804000    131.48628    34.646768   -28.615884    26.436617    29.561508    22.232366 
 4805000    134.89523    35.844845   -27.346099    27.755144     29.89188    21.852261 
 4806000    123.72924    27.932566   -28.141913    24.635815    25.808948    21.041715 
 4807000     113.0813    22.734792   -31.376613    24.449155     25.94945    20.882598 
 4808000    122.76449    24.561896   -32.435839    25.225426    27.660135    21.886666 
 4809000    113.44729    26.535198   -31.789415    28.297641    27.300967    20.479476 
 4810000    120.66708    20.660486   -34.433529    21.724573    31.350152    20.112046 
 4811000    116.16064    22.619135   -33.778211    22.844904    29.949751    22.511125 
 4812000    124.34896     26.54016   -31.129199    25.569228    28.239185    21.101404 
 4813000    113.79107    29.603562   -30.777647    26.269042     27.60905    23.694337 
 4814000    129.99667    25.378155   -29.513724    21.798428    27.339572    23.358077 
 4815000    111.25352    36.122627   -29.481253    27.240082    31.393392    25.736496 
 4816000     137.5422    24.521858    -31.34129    20.443015     31.46206    21.632827 
 4817000     120.7687    33.795039   -31.284866    26.785474    34.584202    21.886605 
 4818000    127.01914    28.156398   -28.427151    24.539475    25.881903    24.485953 
 4819000      124.421    32.415763   -29.934833    27.472854    29.017463    24.022565 
 4820000    123.06608    34.432878   -29.657521    26.814934    28.984432    24.133522 
 4821000    118.82285    32.389726   -29.870969    24.496469    32.187378    22.431792 
 4822000    121.74734    36.614891   -27.653179    24.274153    30.912057    23.649767 
 4823000    125.22635    30.277502   -29.210195    23.677422     26.80763    25.158123 
 4824000    126.32246     38.20018    -28.09211     27.92897    30.480876    22.690466 
 4825000    115.76441    42.262937   -26.720255    23.741949    35.472695    25.273853 
 4826000    133.85714    34.837404     -30.0655     24.78478    33.007754    22.675763 
 4827000    129.57138    37.586597   -28.221889    26.544821    28.801312    26.342292 
 4828000     129.9693    46.890283   -24.424338     30.36541    33.178505    24.607893 
 4829000    133.46434    41.034035   -26.917465    29.064075    31.077613    24.326223 
 4830000    130.73729    39.736616   -25.714633    30.689863    29.357643    23.264238 
 4831000    127.02663    37.479577   -24.038851    25.773513     29.62562    22.653347 
 4832000    137.58363    32.334443   -25.633195    25.345556    27.551831    22.120722 
 4833000    110.61591    42.001953   -25.182519    27.352618    30.488926    25.383556 
 4834000    117.91079    36.453612    -25.96784    25.382244    30.189651    22.883696 
 4835000    128.61113     37.88812   -27.680438    30.488841    29.119262    23.297088 
 4836000    123.28969    35.609235   -28.732493    25.265358    32.090829    23.644118 
 4837000    118.80085    30.661024    -23.63149    23.080626    25.157769    21.404117 
 4838000    121.43766    30.887906   -25.055871     24.17533    28.492651    19.267743 
 4839000    125.50311     30.84739   -26.481548    21.612183    31.921528      18.9239 
 4840000    119.94676    32.908624   -23.395369    20.973651    31.614094    19.545804 
 4841000    122.14367    41.078535   -27.057968    28.260651    31.326766    24.367949 
 4842000    130.27051    39.886334   -26.121198    23.500157    33.526656    24.996049 
 4843000    121.31988    36.813809   -29.178709    27.713793    31.170717    22.977421 
 4844000    120.82159    37.749122    -25.25568    28.540107    28.613319    20.353829 
 4845000     116.5088    39.139514    -28.37443    27.916305    31.467778    21.169606 
 4846000    116.50917    37.163321   -27.780428    23.830257    34.762775    21.024796 
 4847000    129.98523    35.163774   -29.031855    26.329022    31.357228     20.93432 
 4848000    137.27751    35.067579   -27.805556    25.375621     31.45825    20.110645 
 4849000    127.34071    34.830202   -26.256896    24.929309    28.401429    22.375016 
 4850000    156.38045    55.907287    -27.13147    35.597033    40.486022    24.437177 
 4851000    151.96997    45.294495   -24.275279    28.487515    35.397678    22.494091 
 4852000    137.68993    43.516025   -27.150314     30.55915    34.565881     22.51352 
 4853000     144.0283    42.488909   -23.371365    24.512145    38.743645    19.830393 
 4854000    115.07407    47.156293    -21.47364    32.348422    30.837568    22.137566 
 4855000    131.68717     36.30243   -19.669119    22.126607    27.056931    22.613752 
 4856000    129.59648    39.843624   -21.590092    23.363672    30.234875    24.531833 
 4857000    118.39582     45.45512   -22.672999     22.41072    35.809429    27.266943 
 4858000    127.53415    29.487568   -26.014132    22.180177    28.033093      21.9982 
 4859000    113.21802    41.296882   -27.355384    26.827764    32.932419    24.887833 
 4860000    138.36269    31.948588    -30.97055    26.736127    31.232325    23.039476 
 4861000    128.14593    40.555451   -27.214542    24.005882    37.278011    22.153745 
 4862000    133.08943    34.738153   -30.523265    28.057828    31.504618    19.619765 
 4863000    137.89189    31.416834   -29.667172    26.010386    28.995733    20.303544 
 4864000    115.38893    35.526784   -28.909555     24.19199    31.013994    22.043157 
 4865000    111.75298    34.916602   -31.479196    28.292464    30.588599    21.092424 
 4866000    125.79592    37.868142   -27.264577    26.167511    27.950849    23.870101 
 4867000    125.07207    35.067762   -28.152249    27.857203    29.339265    19.858489 
 4868000    132.22546    29.136672   -27.529854    22.449393    27.320291     20.23422 
 4869000    117.48027    42.231698   -28.351776    30.171346    30.337487    23.417824 
 4870000    142.78348    30.078707   -28.974101    24.281899    29.265372    19.939244 
 4871000    130.09414    34.793449   -28.687221    28.208155    31.064417    19.718764 
 4872000    122.52092    41.471059   -24.833703    26.522468    30.934035    25.757615 
 4873000    126.05482    33.810289   -28.946601     22.85326    32.384947    24.774673 
 4874000    120.92055    32.622666   -28.674037    26.107117    31.874432    21.282847 
 4875000     124.6687    30.243899   -28.473195    24.008996    26.944706     25.56826 
 4876000    126.72766    28.484574   -32.255627    27.777022    28.395545    23.199903 
 4877000      124.658    30.782074   -32.191697    28.706172    29.982453    22.142591 
 4878000    117.33852    35.684166   -29.014691    27.937698    32.696745    20.150666 
 4879000    126.18582    26.803758   -31.477099    27.887399    26.363945    20.103766 
 4880000    125.23795    23.505609   -34.171514    25.398169    27.808138    19.796547 
 4881000    123.07899    20.601017     -35.9014    24.715333    30.616158    18.210369 
 4882000    117.88558    16.558452   -36.869048    27.325331    27.318243    17.270376 
 4883000    122.75549    22.170344    -32.85253    23.991671    27.316086    19.488838 
 4884000    105.79259     33.67753   -29.512558     28.83457    29.069627    21.249063 
 4885000    116.18428    33.605181   -26.925476    24.133036    32.499049    18.575979 
 4886000     122.6633    35.294799   -28.124093    24.480076     31.49547    21.686894 
 4887000     120.4222    31.873782   -31.081676    25.548353    29.013513    21.818215 
 4888000    136.61827    26.833666   -29.798488    22.524656    31.122732    17.701387 
 4889000    127.05767    27.623795   -32.764793    31.142508     24.72874    20.470568 
 4890000    127.86958    29.721399   -28.447999    22.567956    26.541667    22.713942 
 4891000    131.47008    30.014512   -31.025795    26.456576     30.30653    21.353197 
 4892000    136.19984    32.862129   -30.980398    26.901802    32.377612    21.446085 
 4893000    117.42013    35.233324   -29.660832    28.936403    30.577771    20.519365 
 4894000    120.22967    32.127106   -28.198074    30.324424    26.006464    20.771234 
 4895000    131.93229    24.684368   -29.670484    22.361432    31.377202    17.403408 
 4896000    121.19715    26.979135    -28.02621    24.706744    30.255532    17.993571 
 4897000    125.75434    28.973478   -28.073367    28.718616    26.107578    19.931627 
 4898000    125.20913    27.181826   -29.037263    25.474481    28.127506    21.765833 
 4899000    132.51994    26.572989    -30.91835    23.947901     27.43067    24.959339 
 4900000    127.97771    28.151543   -31.603886    24.396057    27.021031    24.573534 
 4901000    121.10431    27.278628   -29.781024    25.297142    27.590167    20.812182 
 4902000    116.77214    30.009514   -31.326709    27.824878    29.298754    20.313448 
 4903000    114.25076    16.739597   -34.008783    21.060537    26.808271    17.158467 
 4904000    119.24912    16.757338   -35.230566    24.226967    28.383656    14.994982 
 4905000    114.85492    14.472366   -36.439303    21.481961    26.264195    18.204405 
 4906000    117.07133    28.408171   -33.230296    24.103162     33.81666    19.413235 
 4907000    127.28835    25.057758    -33.74968    26.322313    30.023641    18.462467 
 4908000     128.1966    21.838164   -31.428136    22.667991     30.53893    17.095868 
 4909000    118.50674    26.757449   -32.060606    26.744579    28.811486    19.981799 
 4910000    128.85898    15.774526   -36.581566    25.038621    27.612576    15.574419 
 4911000    116.01223    24.596682   -30.586305    22.170533    30.786714    17.008666 
 4912000    118.05507    23.452276   -30.632587    19.644253    28.468974    19.462885 
 4913000    137.36376    24.238294   -35.943243    25.899766    30.170549    18.529044 
 4914000    128.99419    32.676568   -31.065731    22.103399    34.299569    22.663563 
 4915000      121.221    27.147925   -31.678623    23.943931    28.695075     18.90939 
 4916000    138.75767    22.900874   -31.998566    19.500545    28.982557    20.653884 
 4917000    134.29444    32.139232   -29.813629    26.938268    26.282322    23.487213 
 4918000    128.49043    34.995126   -29.657858    25.190902    32.466011    23.419975 
 4919000    137.83101    33.145947    -28.60699    28.143164    27.691572    20.889728 
 4920000    119.93096    38.532499   -26.600721    32.419913    28.700573    19.907035 
 4921000    117.92593    34.379543   -26.871472    24.721658    27.565486    25.231195 
 4922000     113.3689    44.353214   -26.287461    31.368647    29.953961    23.744786 
 4923000    120.39282    42.396525   -25.442227     26.33836    32.857895    23.655394 
 4924000     131.1965    30.023124   -30.104114    23.912441    31.035388    19.600126 
 4925000    115.95874    33.200776   -30.662998     24.48631    33.450289    21.258565 
 4926000    115.45433    30.151703   -30.491104    21.640906    31.933502    21.002551 
 4927000    119.39142    28.588367    -27.43668    22.323213    29.346786     21.17322 
 4928000    127.20547    33.785272   -26.770774     26.82343    28.749028    20.990798 
 4929000    136.18727    38.346731    -28.03709     27.86066    31.066787    22.212467 
 4930000    131.58587    39.124014   -26.916482    27.760825    29.485504    23.085214 
 4931000    128.68363    31.909833   -27.557416    26.535274    28.047583    20.349487 
 4932000    126.80469    32.592205   -29.513477    26.440711    29.238381    19.948137 
 4933000     127.4079    37.057219   -30.192372    28.821742    31.572174    20.928329 
 4934000    124.15493    30.015147   -29.244925    27.364562    26.852723    19.965737 
 4935000    124.74278    35.403959   -30.150643    31.518162    28.662828    20.848333 
 4936000    116.58987    37.418376   -26.459132    27.275186    30.869009    22.111032 
 4937000    120.10982    35.460779   -26.516657    22.777556    31.526787    24.406347 
 4938000    120.44738    35.619667   -25.906464    25.670607    27.622402    26.145191 
 4939000    130.15145    34.921869   -25.751101    24.811108     29.23544    24.628691 
 4940000    122.82287    35.344181   -29.547123    25.329295    31.054969    26.108683 
 4941000    125.10842    36.895005   -27.733166    28.068858    30.478545    22.709398 
 4942000    126.07088    37.916769   -28.004552    25.771625    35.645408    23.871889 
 4943000    130.92944    33.042727   -26.330059     22.97282     30.67375    24.417761 
 4944000    117.22676    34.103548   -26.452667    23.311692    31.176556    25.031797 
 4945000    117.42343    38.143417   -26.239177    23.242789    31.765487     26.53225 
 4946000    118.44466    32.432083   -26.138788    23.091172    28.998714    23.807015 
 4947000    122.77019    40.649163   -26.143811    28.252728    29.736639    26.675427 
 4948000     115.3882    40.656181   -25.826293     24.89915    28.393919     29.64413 
 4949000    110.86937    39.228145   -22.581464     28.02029    27.461435    26.170405 
 4950000    118.20062    39.262286   -21.254367    24.792779    31.525562    23.330727 
 4951000    114.95196    33.825083   -23.307445    23.615079    26.690971    26.339892 
 4952000    125.59185    31.571018   -26.162456     24.26621    27.859752    25.071456 
 4953000    121.24577    32.970241    -29.38508    28.465421    30.220083    22.001113 
 4954000    118.88419    29.120813   -28.264994    26.212299    29.855035     20.12525 
 4955000    124.42059    24.839704   -30.969454    25.145709    30.748835    19.415847 
 4956000    124.71852    20.509036   -30.327204    24.279196    26.386388    17.141162 
 4957000    128.15166     33.40344   -26.193938    24.214633    31.279881    22.907927 
 4958000    122.56105    31.499678   -27.392267    20.401665    35.577662    19.568212 
 4959000    129.95897    26.177728   -29.824218    22.868283    31.384846    18.271406 
 4960000    128.16299    33.720454   -31.571725    29.556824    29.661698    21.324838 
 4961000    117.63762    35.267628    -30.19751    26.769439    33.109343    23.349323 
 4962000    123.43354     25.55786   -29.102343    20.621833    29.030182    22.276596 
 4963000    128.44766    31.143937   -26.083919    22.287373    32.810351    20.620439 
 4964000    105.82387    38.205036    -25.82167    25.988657    28.438339    26.268818 
 4965000    126.89713    30.576104   -28.754564    21.376748    34.183519    21.306631 
 4966000    114.96805    42.947877   -27.150923    29.887927    32.821643    25.936465 
 4967000    123.70866    35.568354   -28.126969    27.438822    29.578641    23.479942 
 4968000    105.20519    40.178761   -26.183489    29.769945    28.446942    26.287491 
 4969000    112.99399    41.118539   -24.840427    24.305821    30.456977    24.951171 
 4970000    113.94519    38.768302   -26.200203    28.118586    29.617662    22.604919 
 4971000     120.0403    39.833213   -25.656453    27.863711    30.424013    23.391987 
 4972000    125.63059    32.553059   -24.461915    23.545917    25.075643    25.736112 
 4973000    113.21295    40.637613    -22.91742    28.152592    28.154095    24.187427 
 4974000    109.94348    36.125525   -26.532001    25.847873    29.970233    23.305729 
 4975000    113.95752    35.791658   -25.588247    28.027555    27.975833    22.555699 
 4976000    107.68247    35.741056   -24.675753     26.76823    26.736142    25.311893 
 4977000    125.89453    36.775119   -25.250115    25.940139     29.93829    23.310072 
 4978000    121.14299    43.023103   -25.180889    26.927593    31.392295     26.46899 
 4979000    111.20811    41.407062   -27.138978    29.650758    30.003874    24.229478 
 4980000    124.02416    34.607115   -26.814434    25.818784    28.828187    22.907808 
 4981000     120.4301    42.658597   -23.941352    26.157019    30.898627    26.059598 
 4982000    125.05084    49.829622   -20.431153    27.835346    32.472206     27.05183 
 4983000     126.4269    40.740822   -22.175933    25.406659    27.559421    25.777274 
 4984000    125.15552    41.622182   -24.618027    22.851561    33.174408    24.921086 
 4985000    120.67158    44.485246   -24.216719    26.719765    31.280517    25.250439 
 4986000    116.79503    38.830062   -24.443201    24.613077    31.833585    24.967691 
 4987000    121.00049    22.914363   -28.847079    24.190309    23.839748    21.323562 
 4988000    106.48591    26.015802   -27.838134    25.052809    24.609697    22.249239 
 4989000    116.75749    26.052677   -29.917614    25.058692    26.958448    20.978295 
 4990000     118.3784    23.848451   -30.419975    21.541697    27.355287    22.309737 
 4991000    112.47932    34.533394   -26.720678    24.827158    29.739886    22.958146 
 4992000    124.48808    32.489297   -28.304938    22.630567     32.80626    21.740056 
 4993000    129.50678    31.874504   -26.292674    22.238571    34.175095    18.386183 
 4994000    114.69991     40.61565   -23.991145    22.610234    30.792982    26.707211 
 4995000    120.97846     34.46479   -25.780461    24.842452    27.239017    22.119088 
 4996000    115.83258    35.419643   -27.426592    24.929653    29.831139     24.54929 
 4997000    117.08805    34.126353   -26.842362     25.85312    26.684017    25.242239 
 4998000    135.39318    38.317752   -27.282485    29.755659    31.434304    22.538056 
 4999000    134.00019    37.360403   -30.228784    25.734182    32.804158    25.101134 
 5000000    124.41863    39.562687   -25.817781    25.767806    31.429956    24.971734 
Loop time of 989.443 on 4 procs for 5000000 steps with 209 atoms

Performance: 218.305 ns/day, 0.110 hours/ns, 5053.350 timesteps/s
101.6% CPU use with 4 MPI tasks x no OpenMP threads

MPI task timing breakdown:
Section |  min time  |  avg time  |  max time  |%varavg| %total
---------------------------------------------------------------
Pair    | 260.12     | 310.54     | 367.41     | 275.7 | 31.39
Bond    | 78.477     | 96.78      | 118.86     | 186.0 |  9.78
Neigh   | 6.3174     | 6.3366     | 6.3582     |   0.6 |  0.64
Comm    | 121.96     | 208.58     | 309.87     | 579.6 | 21.08
Output  | 0.86195    | 1.3338     | 2.103      |  44.2 |  0.13
Modify  | 182.38     | 345.44     | 503.45     | 843.1 | 34.91
Other   |            | 20.42      |            |       |  2.06

Nlocal:    52.25 ave 107 max 0 min
Histogram: 2 0 0 0 0 0 0 0 0 2
Nghost:    56.75 ave 107 max 9 min
Histogram: 2 0 0 0 0 0 0 0 0 2
Neighs:    4341.25 ave 8842 max 0 min
Histogram: 2 0 0 0 0 0 0 0 0 2

Total # of neighbors = 17365
Ave neighs/atom = 83.0861
Ave special neighs/atom = 8.29665
Neighbor list builds = 26385
Dangerous builds = 0
Total wall time: 0:16:29
