LAMMPS data file

208 atoms
208 bonds
306 angles
680 dihedrals

208 atom types
208 bond types
306 angle types
680 dihedral types

-200.000000 200.000000 xlo xhi
-200.000000 200.000000 ylo yhi
-200.000000 200.000000 zlo zhi

Masses

1 1.0
2 1.0
3 1.0
4 1.0
5 1.0
6 1.0
7 1.0
8 1.0
9 1.0
10 1.0
11 1.0
12 1.0
13 1.0
14 1.0
15 1.0
16 1.0
17 1.0
18 1.0
19 1.0
20 1.0
21 1.0
22 1.0
23 1.0
24 1.0
25 1.0
26 1.0
27 1.0
28 1.0
29 1.0
30 1.0
31 1.0
32 1.0
33 1.0
34 1.0
35 1.0
36 1.0
37 1.0
38 1.0
39 1.0
40 1.0
41 1.0
42 1.0
43 1.0
44 1.0
45 1.0
46 1.0
47 1.0
48 1.0
49 1.0
50 1.0
51 1.0
52 1.0
53 1.0
54 1.0
55 1.0
56 1.0
57 1.0
58 1.0
59 1.0
60 1.0
61 1.0
62 1.0
63 1.0
64 1.0
65 1.0
66 1.0
67 1.0
68 1.0
69 1.0
70 1.0
71 1.0
72 1.0
73 1.0
74 1.0
75 1.0
76 1.0
77 1.0
78 1.0
79 1.0
80 1.0
81 1.0
82 1.0
83 1.0
84 1.0
85 1.0
86 1.0
87 1.0
88 1.0
89 1.0
90 1.0
91 1.0
92 1.0
93 1.0
94 1.0
95 1.0
96 1.0
97 1.0
98 1.0
99 1.0
100 1.0
101 1.0
102 1.0
103 1.0
104 1.0
105 1.0
106 1.0
107 1.0
108 1.0
109 1.0
110 1.0
111 1.0
112 1.0
113 1.0
114 1.0
115 1.0
116 1.0
117 1.0
118 1.0
119 1.0
120 1.0
121 1.0
122 1.0
123 1.0
124 1.0
125 1.0
126 1.0
127 1.0
128 1.0
129 1.0
130 1.0
131 1.0
132 1.0
133 1.0
134 1.0
135 1.0
136 1.0
137 1.0
138 1.0
139 1.0
140 1.0
141 1.0
142 1.0
143 1.0
144 1.0
145 1.0
146 1.0
147 1.0
148 1.0
149 1.0
150 1.0
151 1.0
152 1.0
153 1.0
154 1.0
155 1.0
156 1.0
157 1.0
158 1.0
159 1.0
160 1.0
161 1.0
162 1.0
163 1.0
164 1.0
165 1.0
166 1.0
167 1.0
168 1.0
169 1.0
170 1.0
171 1.0
172 1.0
173 1.0
174 1.0
175 1.0
176 1.0
177 1.0
178 1.0
179 1.0
180 1.0
181 1.0
182 1.0
183 1.0
184 1.0
185 1.0
186 1.0
187 1.0
188 1.0
189 1.0
190 1.0
191 1.0
192 1.0
193 1.0
194 1.0
195 1.0
196 1.0
197 1.0
198 1.0
199 1.0
200 1.0
201 1.0
202 1.0
203 1.0
204 1.0
205 1.0
206 1.0
207 1.0
208 1.0

Atoms

1 1 1 -2.535018 -20.700878 -4.612866 0 0 0
2 1 2 -2.189018 -16.983878 -5.527866 0 0 0
3 1 3 -1.151351 -17.044878 -3.944866 0 0 0
4 1 4 -1.752018 -16.082878 -9.193866 0 0 0
5 1 5 -5.037995 -15.661752 -10.521394 0 0 0
6 1 6 0.342982 -13.218878 -10.570866 0 0 0
7 1 7 2.702369 -14.004658 -11.182459 0 0 0
8 1 8 -1.500018 -9.938878 -10.855866 0 0 0
9 1 9 -2.509018 -9.714878 -9.815866 0 0 0
10 1 10 -0.592018 -6.383878 -11.773866 0 0 0
11 1 11 -0.719071 -6.083677 -13.777074 0 0 0
12 1 12 -1.290018 -2.859878 -10.940866 0 0 0
13 1 13 -0.253351 -1.299211 -10.323533 0 0 0
14 1 14 -3.078018 -2.510878 -14.263866 0 0 0
15 1 15 -1.946754 -2.897648 -17.377349 0 0 0
16 1 16 -5.891018 -4.438878 -12.665866 0 0 0
17 1 17 -5.233310 -7.792990 -12.143073 0 0 0
18 1 18 -8.518018 -2.222878 -11.177866 0 0 0
19 1 19 -11.256066 -1.237183 -10.325578 0 0 0
20 1 20 -8.931018 -4.483878 -8.017866 0 0 0
21 1 21 -5.223018 -4.386878 -7.382866 0 0 0
22 1 22 -3.689351 -5.316544 -8.159533 0 0 0
23 1 23 -5.099018 -0.552878 -7.584866 0 0 0
24 1 24 -5.996395 0.605909 -11.560687 0 0 0
25 1 25 -8.092018 -0.457878 -5.159866 0 0 0
26 1 26 -11.603253 1.284774 -6.911735 0 0 0
27 1 27 -6.473018 -2.868878 -2.688866 0 0 0
28 1 28 -6.170018 -4.313878 -2.935866 0 0 0
29 1 29 -3.233018 -0.876878 -2.938866 0 0 0
30 1 30 -1.146518 -0.032628 -4.204866 0 0 0
31 1 31 -4.961018 2.483122 -2.203866 0 0 0
32 1 32 -6.592060 4.439905 -2.722725 0 0 0
33 1 33 -6.810018 0.915122 0.702134 0 0 0
34 1 34 -8.413303 -1.251021 2.761991 0 0 0
35 1 35 -3.642018 -0.629878 2.277134 0 0 0
36 1 36 -2.830018 -1.749878 1.687134 0 0 0
37 1 37 -1.593018 2.518122 1.958134 0 0 0
38 1 38 -0.548684 3.226789 0.457467 0 0 0
39 1 39 -4.578018 4.447122 3.401134 0 0 0
40 1 40 -4.594018 2.133122 6.426134 0 0 0
41 1 41 -6.950596 0.984031 6.878237 0 0 0
42 1 42 -0.769018 2.463122 6.720134 0 0 0
43 1 43 3.010898 2.833314 6.507889 0 0 0
44 1 44 -1.015018 6.278122 6.888134 0 0 0
45 1 45 -0.220693 7.256363 4.742640 0 0 0
46 1 46 -3.975018 6.223122 9.293134 0 0 0
47 1 47 -7.654895 5.213929 9.878480 0 0 0
48 1 48 -2.040018 3.877122 11.651134 0 0 0
49 1 49 -1.807018 2.396122 11.355134 0 0 0
50 1 50 1.260982 5.764122 11.647134 0 0 0
51 1 51 1.976045 6.741688 10.120967 0 0 0
52 1 52 2.366982 8.468122 14.080134 0 0 0
53 1 53 2.631989 6.985035 16.129631 0 0 0
54 1 54 4.051982 10.322122 11.190134 0 0 0
55 1 55 5.557394 10.327491 9.081435 0 0 0
56 1 56 2.910982 13.909122 10.725134 0 0 0
57 1 57 3.476457 17.159748 11.383050 0 0 0
58 1 58 3.477982 13.353122 6.976134 0 0 0
59 1 59 5.864938 16.295081 7.537363 0 0 0
60 1 60 2.039982 11.235122 4.244134 0 0 0
61 1 61 0.077452 10.518172 1.925214 0 0 0
62 1 62 3.741982 8.143122 2.825134 0 0 0
63 1 63 4.774638 7.219734 4.226623 0 0 0
64 1 64 3.124982 6.722122 -0.678866 0 0 0
65 1 65 3.071001 9.715863 -3.428853 0 0 0
66 1 66 4.175982 3.721122 -2.769866 0 0 0
67 1 67 3.251982 2.634122 -3.313866 0 0 0
68 1 68 7.264982 4.672122 -4.817866 0 0 0
69 1 69 9.675732 5.081122 -4.786366 0 0 0
70 1 70 7.399982 1.106122 -6.104866 0 0 0
71 1 71 10.149375 -0.742860 -6.899851 0 0 0
72 1 72 4.982982 -1.781878 -6.397866 0 0 0
73 1 73 3.128316 -1.936544 -6.942866 0 0 0
74 1 74 7.383982 -4.639878 -6.235866 0 0 0
75 1 75 8.883982 -4.831878 -4.920866 0 0 0
76 1 76 4.926982 -7.555878 -6.587866 0 0 0
77 1 77 5.839209 -12.270799 -5.816821 0 0 0
78 1 78 1.203982 -8.114878 -6.876866 0 0 0
79 1 79 0.404982 -7.071878 -7.551866 0 0 0
80 1 80 -0.649018 -11.391878 -6.585866 0 0 0
81 1 81 2.203836 -13.458470 -4.353681 0 0 0
82 1 82 -4.145018 -12.562878 -5.949866 0 0 0
83 1 83 -6.534558 -11.269051 -8.894335 0 0 0
84 1 84 -6.260018 -15.533878 -5.060866 0 0 0
85 1 85 -5.438855 -18.062729 -2.977523 0 0 0
86 1 86 -9.939018 -16.236878 -5.395866 0 0 0
87 1 87 -10.578518 -15.920878 -7.239866 0 0 0
88 1 88 -11.639018 -17.484878 -2.254866 0 0 0
89 1 89 -10.399351 -16.741878 -0.899866 0 0 0
90 1 90 -15.058018 -16.463878 -0.930866 0 0 0
91 1 91 -15.627018 -16.838878 0.427134 0 0 0
92 1 92 -13.979018 -13.066878 -2.230866 0 0 0
93 1 93 -10.476018 -12.083878 -3.335866 0 0 0
94 1 94 -10.372351 -11.290211 -5.138533 0 0 0
95 1 95 -7.203018 -11.951878 -1.355866 0 0 0
96 1 96 -7.506425 -13.613983 0.488308 0 0 0
97 1 97 -4.579018 -9.542878 -2.620866 0 0 0
98 1 98 -7.085735 -7.827196 -4.962275 0 0 0
99 1 99 -0.912018 -9.915878 -1.757866 0 0 0
100 1 100 -1.839589 -13.035592 -0.956009 0 0 0
101 1 101 1.081982 -6.773878 -2.399866 0 0 0
102 1 102 -0.971518 -5.416628 -3.158866 0 0 0
103 1 103 4.805982 -6.045878 -1.861866 0 0 0
104 1 104 5.619042 -8.447018 -1.721253 0 0 0
105 1 105 5.363982 -2.348878 -2.000866 0 0 0
106 1 106 3.608982 -1.712211 -1.396533 0 0 0
107 1 107 8.045982 0.130122 -1.118866 0 0 0
108 1 108 11.038738 -0.516470 -2.696869 0 0 0
109 1 109 6.663982 3.154122 0.744134 0 0 0
110 1 110 4.467232 2.436372 1.967634 0 0 0
111 1 111 8.488982 6.491122 0.867134 0 0 0
112 1 112 7.805982 9.567122 2.932134 0 0 0
113 1 113 8.866729 10.747232 6.506008 0 0 0
114 1 114 6.622982 12.712122 1.209134 0 0 0
115 1 115 4.770267 12.498606 0.662135 0 0 0
116 1 116 6.971982 16.367122 2.182134 0 0 0
117 1 117 7.777527 17.300239 0.713550 0 0 0
118 1 118 3.253982 16.931122 2.817134 0 0 0
119 1 119 1.721269 15.706857 1.519632 0 0 0
120 1 120 1.504982 16.637122 6.202134 0 0 0
121 1 121 1.049016 18.428240 6.865855 0 0 0
122 1 122 -1.522018 14.291122 6.467134 0 0 0
123 1 123 -0.654353 11.224986 8.631376 0 0 0
124 1 124 -3.826018 17.305122 6.627134 0 0 0
125 1 125 -3.637053 18.270000 8.300994 0 0 0
126 1 126 -4.266018 19.040122 3.203134 0 0 0
127 1 127 -1.537327 19.118259 2.254699 0 0 0
128 1 128 -3.664018 15.159122 -3.514866 0 0 0
129 1 129 -3.850268 16.451372 -5.819366 0 0 0
130 1 130 -0.846018 12.560122 -3.778866 0 0 0
131 1 131 -1.175957 10.604430 -2.091310 0 0 0
132 1 132 1.381982 14.524122 -6.141866 0 0 0
133 1 133 0.478241 16.911282 -5.993593 0 0 0
134 1 134 3.016982 15.052122 -2.784866 0 0 0
135 1 135 1.063205 14.485130 -1.485494 0 0 0
136 1 136 6.606982 14.352122 -3.901866 0 0 0
137 1 137 6.529316 16.223789 -4.088533 0 0 0
138 1 138 9.045982 11.919122 -2.363866 0 0 0
139 1 139 7.615554 9.151551 -3.649295 0 0 0
140 1 140 11.876982 13.142122 -0.174866 0 0 0
141 1 141 11.220894 14.266109 2.707757 0 0 0
142 1 142 15.255982 13.354122 -1.833866 0 0 0
143 1 143 15.893027 15.873640 -1.839392 0 0 0
144 1 144 17.116982 13.091122 1.500134 0 0 0
145 1 145 16.784451 16.551701 2.744612 0 0 0
146 1 146 17.410982 9.271122 2.391134 0 0 0
147 1 147 19.162316 9.487456 1.702800 0 0 0
148 1 148 17.262982 10.225122 6.100134 0 0 0
149 1 149 17.652545 13.412146 6.691820 0 0 0
150 1 150 13.826982 11.765122 5.419134 0 0 0
151 1 151 14.002482 14.210372 5.906884 0 0 0
152 1 152 12.551982 9.402122 2.726134 0 0 0
153 1 153 13.760804 7.902547 -0.392471 0 0 0
154 1 154 12.985982 6.480122 5.160134 0 0 0
155 1 155 12.806911 7.295256 9.253852 0 0 0
156 1 156 12.017982 3.871122 2.514134 0 0 0
157 1 157 13.390855 2.504718 -0.729568 0 0 0
158 1 158 10.071982 0.981122 3.953134 0 0 0
159 1 159 8.896982 1.301122 4.911134 0 0 0
160 1 160 9.355982 -2.390878 2.499134 0 0 0
161 1 161 9.423554 -5.366878 0.939419 0 0 0
162 1 162 5.808982 -3.583878 3.182134 0 0 0
163 1 163 5.016955 -1.405390 3.981019 0 0 0
164 1 164 3.756982 -6.720878 2.465134 0 0 0
165 1 165 5.126403 -8.185835 2.423562 0 0 0
166 1 166 0.005982 -6.196878 2.627134 0 0 0
167 1 167 0.556411 -2.823306 2.525991 0 0 0
168 1 168 -2.751018 -8.833878 2.444134 0 0 0
169 1 169 -1.355636 -11.823559 3.727559 0 0 0
170 1 170 -6.163018 -7.387878 1.570134 0 0 0
171 1 171 -5.747768 -5.615378 0.479634 0 0 0
172 1 172 -9.373018 -9.488878 1.665134 0 0 0
173 1 173 -12.305165 -11.869306 2.582251 0 0 0
174 1 174 -11.952018 -8.069878 -0.626866 0 0 0
175 1 175 -11.436018 -7.385878 -1.926866 0 0 0
176 1 176 -15.551018 -9.134878 -1.223866 0 0 0
177 1 177 -16.586684 -10.362211 -0.090533 0 0 0
178 1 178 -16.283018 -6.628878 -3.988866 0 0 0
179 1 179 -14.948351 -7.689544 -4.791533 0 0 0
180 1 180 -19.859018 -7.929878 -4.512866 0 0 0
181 1 181 -18.095172 -11.335079 -4.838259 0 0 0
182 1 182 -20.628018 -7.269878 -0.822866 0 0 0
183 1 183 -22.365757 -9.068306 -0.036697 0 0 0
184 1 184 -18.802018 -3.955878 -0.883866 0 0 0
185 1 185 -16.116018 -4.950878 1.685134 0 0 0
186 1 186 -16.929914 -6.431445 2.713990 0 0 0
187 1 187 -12.324018 -4.754878 2.048134 0 0 0
188 1 188 -10.684211 -2.954505 -0.336617 0 0 0
189 1 189 -10.303018 -5.562878 5.123134 0 0 0
190 1 190 -11.445322 -6.933528 5.946928 0 0 0
191 1 191 -6.601018 -5.391878 5.907134 0 0 0
192 1 192 -4.489768 -3.805128 5.864884 0 0 0
193 1 193 -5.738018 -8.948878 6.828134 0 0 0
194 1 194 -6.455440 -10.224545 5.515263 0 0 0
195 1 195 -2.099018 -8.287878 7.402134 0 0 0
196 1 196 0.047149 -11.306401 8.024185 0 0 0
197 1 197 0.343982 -5.440878 7.098134 0 0 0
198 1 198 0.127225 -3.490414 7.155636 0 0 0
199 1 199 4.077982 -5.944878 7.686134 0 0 0
200 1 200 4.405852 -7.870952 7.455522 0 0 0
201 1 201 6.572982 -3.111878 7.167134 0 0 0
202 1 202 4.751837 -1.732675 6.430895 0 0 0
203 1 203 10.210982 -2.476878 7.977134 0 0 0
204 1 204 11.556035 -5.662512 8.332570 0 0 0
205 1 205 13.011982 -0.255878 6.763134 0 0 0
206 1 206 13.525526 1.382137 8.644644 0 0 0
207 1 207 14.255982 -1.302878 3.322134 0 0 0
208 1 208 15.168735 -1.328068 2.364389 0 0 0

Bonds

1 1 1 2 # CA1-CA2
2 2 2 3 # CA2-SC2
3 3 2 4 # CA2-CA3
4 4 4 5 # CA3-SC3
5 5 4 6 # CA3-CA4
6 6 6 7 # CA4-SC4
7 7 6 8 # CA4-CA5
8 8 8 9 # CA5-SC5
9 9 8 10 # CA5-CA6
10 10 10 11 # CA6-SC6
11 11 10 12 # CA6-CA7
12 12 12 13 # CA7-SC7
13 13 12 14 # CA7-CA8
14 14 14 15 # CA8-SC8
15 15 14 16 # CA8-CA9
16 16 16 17 # CA9-SC9
17 17 16 18 # CA9-CA10
18 18 18 19 # CA10-SC10
19 19 18 20 # CA10-CA11
20 20 20 21 # CA11-CA12
21 21 21 22 # CA12-SC12
22 22 21 23 # CA12-CA13
23 23 23 24 # CA13-SC13
24 24 23 25 # CA13-CA14
25 25 25 26 # CA14-SC14
26 26 25 27 # CA14-CA15
27 27 27 28 # CA15-SC15
28 28 27 29 # CA15-CA16
29 29 29 30 # CA16-SC16
30 30 29 31 # CA16-CA17
31 31 31 32 # CA17-SC17
32 32 31 33 # CA17-CA18
33 33 33 34 # CA18-SC18
34 34 33 35 # CA18-CA19
35 35 35 36 # CA19-SC19
36 36 35 37 # CA19-CA20
37 37 37 38 # CA20-SC20
38 38 37 39 # CA20-CA21
39 39 39 40 # CA21-CA22
40 40 40 41 # CA22-SC22
41 41 40 42 # CA22-CA23
42 42 42 43 # CA23-SC23
43 43 42 44 # CA23-CA24
44 44 44 45 # CA24-SC24
45 45 44 46 # CA24-CA25
46 46 46 47 # CA25-SC25
47 47 46 48 # CA25-CA26
48 48 48 49 # CA26-SC26
49 49 48 50 # CA26-CA27
50 50 50 51 # CA27-SC27
51 51 50 52 # CA27-CA28
52 52 52 53 # CA28-SC28
53 53 52 54 # CA28-CA29
54 54 54 55 # CA29-SC29
55 55 54 56 # CA29-CA30
56 56 56 57 # CA30-SC30
57 57 56 58 # CA30-CA31
58 58 58 59 # CA31-SC31
59 59 58 60 # CA31-CA32
60 60 60 61 # CA32-SC32
61 61 60 62 # CA32-CA33
62 62 62 63 # CA33-SC33
63 63 62 64 # CA33-CA34
64 64 64 65 # CA34-SC34
65 65 64 66 # CA34-CA35
66 66 66 67 # CA35-SC35
67 67 66 68 # CA35-CA36
68 68 68 69 # CA36-SC36
69 69 68 70 # CA36-CA37
70 70 70 71 # CA37-SC37
71 71 70 72 # CA37-CA38
72 72 72 73 # CA38-SC38
73 73 72 74 # CA38-CA39
74 74 74 75 # CA39-SC39
75 75 74 76 # CA39-CA40
76 76 76 77 # CA40-SC40
77 77 76 78 # CA40-CA41
78 78 78 79 # CA41-SC41
79 79 78 80 # CA41-CA42
80 80 80 81 # CA42-SC42
81 81 80 82 # CA42-CA43
82 82 82 83 # CA43-SC43
83 83 82 84 # CA43-CA44
84 84 84 85 # CA44-SC44
85 85 84 86 # CA44-CA45
86 86 86 87 # CA45-SC45
87 87 86 88 # CA45-CA46
88 88 88 89 # CA46-SC46
89 89 88 90 # CA46-CA47
90 90 90 91 # CA47-SC47
91 91 90 92 # CA47-CA48
92 92 92 93 # CA48-CA49
93 93 93 94 # CA49-SC49
94 94 93 95 # CA49-CA50
95 95 95 96 # CA50-SC50
96 96 95 97 # CA50-CA51
97 97 97 98 # CA51-SC51
98 98 97 99 # CA51-CA52
99 99 99 100 # CA52-SC52
100 100 99 101 # CA52-CA53
101 101 101 102 # CA53-SC53
102 102 101 103 # CA53-CA54
103 103 103 104 # CA54-SC54
104 104 103 105 # CA54-CA55
105 105 105 106 # CA55-SC55
106 106 105 107 # CA55-CA56
107 107 107 108 # CA56-SC56
108 108 107 109 # CA56-CA57
109 109 109 110 # CA57-SC57
110 110 109 111 # CA57-CA58
111 111 111 112 # CA58-CA59
112 112 112 113 # CA59-SC59
113 113 112 114 # CA59-CA60
114 114 114 115 # CA60-SC60
115 115 114 116 # CA60-CA61
116 116 116 117 # CA61-SC61
117 117 116 118 # CA61-CA62
118 118 118 119 # CA62-SC62
119 119 118 120 # CA62-CA63
120 120 120 121 # CA63-SC63
121 121 120 122 # CA63-CA64
122 122 122 123 # CA64-SC64
123 123 122 124 # CA64-CA65
124 124 124 125 # CA65-SC65
125 125 124 126 # CA65-CA66
126 126 126 127 # CA66-SC66
127 127 126 128 # CA66-CA67
128 128 128 129 # CA67-SC67
129 129 128 130 # CA67-CA68
130 130 130 131 # CA68-SC68
131 131 130 132 # CA68-CA69
132 132 132 133 # CA69-SC69
133 133 132 134 # CA69-CA70
134 134 134 135 # CA70-SC70
135 135 134 136 # CA70-CA71
136 136 136 137 # CA71-SC71
137 137 136 138 # CA71-CA72
138 138 138 139 # CA72-SC72
139 139 138 140 # CA72-CA73
140 140 140 141 # CA73-SC73
141 141 140 142 # CA73-CA74
142 142 142 143 # CA74-SC74
143 143 142 144 # CA74-CA75
144 144 144 145 # CA75-SC75
145 145 144 146 # CA75-CA76
146 146 146 147 # CA76-SC76
147 147 146 148 # CA76-CA77
148 148 148 149 # CA77-SC77
149 149 148 150 # CA77-CA78
150 150 150 151 # CA78-SC78
151 151 150 152 # CA78-CA79
152 152 152 153 # CA79-SC79
153 153 152 154 # CA79-CA80
154 154 154 155 # CA80-SC80
155 155 154 156 # CA80-CA81
156 156 156 157 # CA81-SC81
157 157 156 158 # CA81-CA82
158 158 158 159 # CA82-SC82
159 159 158 160 # CA82-CA83
160 160 160 161 # CA83-SC83
161 161 160 162 # CA83-CA84
162 162 162 163 # CA84-SC84
163 163 162 164 # CA84-CA85
164 164 164 165 # CA85-SC85
165 165 164 166 # CA85-CA86
166 166 166 167 # CA86-SC86
167 167 166 168 # CA86-CA87
168 168 168 169 # CA87-SC87
169 169 168 170 # CA87-CA88
170 170 170 171 # CA88-SC88
171 171 170 172 # CA88-CA89
172 172 172 173 # CA89-SC89
173 173 172 174 # CA89-CA90
174 174 174 175 # CA90-SC90
175 175 174 176 # CA90-CA91
176 176 176 177 # CA91-SC91
177 177 176 178 # CA91-CA92
178 178 178 179 # CA92-SC92
179 179 178 180 # CA92-CA93
180 180 180 181 # CA93-SC93
181 181 180 182 # CA93-CA94
182 182 182 183 # CA94-SC94
183 183 182 184 # CA94-CA95
184 184 184 185 # CA95-CA96
185 185 185 186 # CA96-SC96
186 186 185 187 # CA96-CA97
187 187 187 188 # CA97-SC97
188 188 187 189 # CA97-CA98
189 189 189 190 # CA98-SC98
190 190 189 191 # CA98-CA99
191 191 191 192 # CA99-SC99
192 192 191 193 # CA99-CA100
193 193 193 194 # CA100-SC100
194 194 193 195 # CA100-CA101
195 195 195 196 # CA101-SC101
196 196 195 197 # CA101-CA102
197 197 197 198 # CA102-SC102
198 198 197 199 # CA102-CA103
199 199 199 200 # CA103-SC103
200 200 199 201 # CA103-CA104
201 201 201 202 # CA104-SC104
202 202 201 203 # CA104-CA105
203 203 203 204 # CA105-SC105
204 204 203 205 # CA105-CA106
205 205 205 206 # CA106-SC106
206 206 205 207 # CA106-CA107
207 207 207 208 # CA107-SC107
208 208 131 166 # SC68-CA86

Angles

1 1 1 2 3 # CA1-CA2-SC2
2 2 1 2 4 # CA1-CA2-CA3
3 3 3 2 4 # SC2-CA2-CA3
4 4 2 4 5 # CA2-CA3-SC3
5 5 2 4 6 # CA2-CA3-CA4
6 6 5 4 6 # SC3-CA3-CA4
7 7 4 6 7 # CA3-CA4-SC4
8 8 4 6 8 # CA3-CA4-CA5
9 9 7 6 8 # SC4-CA4-CA5
10 10 6 8 9 # CA4-CA5-SC5
11 11 6 8 10 # CA4-CA5-CA6
12 12 9 8 10 # SC5-CA5-CA6
13 13 8 10 11 # CA5-CA6-SC6
14 14 8 10 12 # CA5-CA6-CA7
15 15 11 10 12 # SC6-CA6-CA7
16 16 10 12 13 # CA6-CA7-SC7
17 17 10 12 14 # CA6-CA7-CA8
18 18 13 12 14 # SC7-CA7-CA8
19 19 12 14 15 # CA7-CA8-SC8
20 20 12 14 16 # CA7-CA8-CA9
21 21 15 14 16 # SC8-CA8-CA9
22 22 14 16 17 # CA8-CA9-SC9
23 23 14 16 18 # CA8-CA9-CA10
24 24 17 16 18 # SC9-CA9-CA10
25 25 16 18 19 # CA9-CA10-SC10
26 26 16 18 20 # CA9-CA10-CA11
27 27 19 18 20 # SC10-CA10-CA11
28 28 18 20 21 # CA10-CA11-CA12
29 29 20 21 22 # CA11-CA12-SC12
30 30 20 21 23 # CA11-CA12-CA13
31 31 22 21 23 # SC12-CA12-CA13
32 32 21 23 24 # CA12-CA13-SC13
33 33 21 23 25 # CA12-CA13-CA14
34 34 24 23 25 # SC13-CA13-CA14
35 35 23 25 26 # CA13-CA14-SC14
36 36 23 25 27 # CA13-CA14-CA15
37 37 26 25 27 # SC14-CA14-CA15
38 38 25 27 28 # CA14-CA15-SC15
39 39 25 27 29 # CA14-CA15-CA16
40 40 28 27 29 # SC15-CA15-CA16
41 41 27 29 30 # CA15-CA16-SC16
42 42 27 29 31 # CA15-CA16-CA17
43 43 30 29 31 # SC16-CA16-CA17
44 44 29 31 32 # CA16-CA17-SC17
45 45 29 31 33 # CA16-CA17-CA18
46 46 32 31 33 # SC17-CA17-CA18
47 47 31 33 34 # CA17-CA18-SC18
48 48 31 33 35 # CA17-CA18-CA19
49 49 34 33 35 # SC18-CA18-CA19
50 50 33 35 36 # CA18-CA19-SC19
51 51 33 35 37 # CA18-CA19-CA20
52 52 36 35 37 # SC19-CA19-CA20
53 53 35 37 38 # CA19-CA20-SC20
54 54 35 37 39 # CA19-CA20-CA21
55 55 38 37 39 # SC20-CA20-CA21
56 56 37 39 40 # CA20-CA21-CA22
57 57 39 40 41 # CA21-CA22-SC22
58 58 39 40 42 # CA21-CA22-CA23
59 59 41 40 42 # SC22-CA22-CA23
60 60 40 42 43 # CA22-CA23-SC23
61 61 40 42 44 # CA22-CA23-CA24
62 62 43 42 44 # SC23-CA23-CA24
63 63 42 44 45 # CA23-CA24-SC24
64 64 42 44 46 # CA23-CA24-CA25
65 65 45 44 46 # SC24-CA24-CA25
66 66 44 46 47 # CA24-CA25-SC25
67 67 44 46 48 # CA24-CA25-CA26
68 68 47 46 48 # SC25-CA25-CA26
69 69 46 48 49 # CA25-CA26-SC26
70 70 46 48 50 # CA25-CA26-CA27
71 71 49 48 50 # SC26-CA26-CA27
72 72 48 50 51 # CA26-CA27-SC27
73 73 48 50 52 # CA26-CA27-CA28
74 74 51 50 52 # SC27-CA27-CA28
75 75 50 52 53 # CA27-CA28-SC28
76 76 50 52 54 # CA27-CA28-CA29
77 77 53 52 54 # SC28-CA28-CA29
78 78 52 54 55 # CA28-CA29-SC29
79 79 52 54 56 # CA28-CA29-CA30
80 80 55 54 56 # SC29-CA29-CA30
81 81 54 56 57 # CA29-CA30-SC30
82 82 54 56 58 # CA29-CA30-CA31
83 83 57 56 58 # SC30-CA30-CA31
84 84 56 58 59 # CA30-CA31-SC31
85 85 56 58 60 # CA30-CA31-CA32
86 86 59 58 60 # SC31-CA31-CA32
87 87 58 60 61 # CA31-CA32-SC32
88 88 58 60 62 # CA31-CA32-CA33
89 89 61 60 62 # SC32-CA32-CA33
90 90 60 62 63 # CA32-CA33-SC33
91 91 60 62 64 # CA32-CA33-CA34
92 92 63 62 64 # SC33-CA33-CA34
93 93 62 64 65 # CA33-CA34-SC34
94 94 62 64 66 # CA33-CA34-CA35
95 95 65 64 66 # SC34-CA34-CA35
96 96 64 66 67 # CA34-CA35-SC35
97 97 64 66 68 # CA34-CA35-CA36
98 98 67 66 68 # SC35-CA35-CA36
99 99 66 68 69 # CA35-CA36-SC36
100 100 66 68 70 # CA35-CA36-CA37
101 101 69 68 70 # SC36-CA36-CA37
102 102 68 70 71 # CA36-CA37-SC37
103 103 68 70 72 # CA36-CA37-CA38
104 104 71 70 72 # SC37-CA37-CA38
105 105 70 72 73 # CA37-CA38-SC38
106 106 70 72 74 # CA37-CA38-CA39
107 107 73 72 74 # SC38-CA38-CA39
108 108 72 74 75 # CA38-CA39-SC39
109 109 72 74 76 # CA38-CA39-CA40
110 110 75 74 76 # SC39-CA39-CA40
111 111 74 76 77 # CA39-CA40-SC40
112 112 74 76 78 # CA39-CA40-CA41
113 113 77 76 78 # SC40-CA40-CA41
114 114 76 78 79 # CA40-CA41-SC41
115 115 76 78 80 # CA40-CA41-CA42
116 116 79 78 80 # SC41-CA41-CA42
117 117 78 80 81 # CA41-CA42-SC42
118 118 78 80 82 # CA41-CA42-CA43
119 119 81 80 82 # SC42-CA42-CA43
120 120 80 82 83 # CA42-CA43-SC43
121 121 80 82 84 # CA42-CA43-CA44
122 122 83 82 84 # SC43-CA43-CA44
123 123 82 84 85 # CA43-CA44-SC44
124 124 82 84 86 # CA43-CA44-CA45
125 125 85 84 86 # SC44-CA44-CA45
126 126 84 86 87 # CA44-CA45-SC45
127 127 84 86 88 # CA44-CA45-CA46
128 128 87 86 88 # SC45-CA45-CA46
129 129 86 88 89 # CA45-CA46-SC46
130 130 86 88 90 # CA45-CA46-CA47
131 131 89 88 90 # SC46-CA46-CA47
132 132 88 90 91 # CA46-CA47-SC47
133 133 88 90 92 # CA46-CA47-CA48
134 134 91 90 92 # SC47-CA47-CA48
135 135 90 92 93 # CA47-CA48-CA49
136 136 92 93 94 # CA48-CA49-SC49
137 137 92 93 95 # CA48-CA49-CA50
138 138 94 93 95 # SC49-CA49-CA50
139 139 93 95 96 # CA49-CA50-SC50
140 140 93 95 97 # CA49-CA50-CA51
141 141 96 95 97 # SC50-CA50-CA51
142 142 95 97 98 # CA50-CA51-SC51
143 143 95 97 99 # CA50-CA51-CA52
144 144 98 97 99 # SC51-CA51-CA52
145 145 97 99 100 # CA51-CA52-SC52
146 146 97 99 101 # CA51-CA52-CA53
147 147 100 99 101 # SC52-CA52-CA53
148 148 99 101 102 # CA52-CA53-SC53
149 149 99 101 103 # CA52-CA53-CA54
150 150 102 101 103 # SC53-CA53-CA54
151 151 101 103 104 # CA53-CA54-SC54
152 152 101 103 105 # CA53-CA54-CA55
153 153 104 103 105 # SC54-CA54-CA55
154 154 103 105 106 # CA54-CA55-SC55
155 155 103 105 107 # CA54-CA55-CA56
156 156 106 105 107 # SC55-CA55-CA56
157 157 105 107 108 # CA55-CA56-SC56
158 158 105 107 109 # CA55-CA56-CA57
159 159 108 107 109 # SC56-CA56-CA57
160 160 107 109 110 # CA56-CA57-SC57
161 161 107 109 111 # CA56-CA57-CA58
162 162 110 109 111 # SC57-CA57-CA58
163 163 109 111 112 # CA57-CA58-CA59
164 164 111 112 113 # CA58-CA59-SC59
165 165 111 112 114 # CA58-CA59-CA60
166 166 113 112 114 # SC59-CA59-CA60
167 167 112 114 115 # CA59-CA60-SC60
168 168 112 114 116 # CA59-CA60-CA61
169 169 115 114 116 # SC60-CA60-CA61
170 170 114 116 117 # CA60-CA61-SC61
171 171 114 116 118 # CA60-CA61-CA62
172 172 117 116 118 # SC61-CA61-CA62
173 173 116 118 119 # CA61-CA62-SC62
174 174 116 118 120 # CA61-CA62-CA63
175 175 119 118 120 # SC62-CA62-CA63
176 176 118 120 121 # CA62-CA63-SC63
177 177 118 120 122 # CA62-CA63-CA64
178 178 121 120 122 # SC63-CA63-CA64
179 179 120 122 123 # CA63-CA64-SC64
180 180 120 122 124 # CA63-CA64-CA65
181 181 123 122 124 # SC64-CA64-CA65
182 182 122 124 125 # CA64-CA65-SC65
183 183 122 124 126 # CA64-CA65-CA66
184 184 125 124 126 # SC65-CA65-CA66
185 185 124 126 127 # CA65-CA66-SC66
186 186 124 126 128 # CA65-CA66-CA67
187 187 127 126 128 # SC66-CA66-CA67
188 188 126 128 129 # CA66-CA67-SC67
189 189 126 128 130 # CA66-CA67-CA68
190 190 129 128 130 # SC67-CA67-CA68
191 191 128 130 131 # CA67-CA68-SC68
192 192 128 130 132 # CA67-CA68-CA69
193 193 131 130 132 # SC68-CA68-CA69
194 194 130 132 133 # CA68-CA69-SC69
195 195 130 132 134 # CA68-CA69-CA70
196 196 133 132 134 # SC69-CA69-CA70
197 197 132 134 135 # CA69-CA70-SC70
198 198 132 134 136 # CA69-CA70-CA71
199 199 135 134 136 # SC70-CA70-CA71
200 200 134 136 137 # CA70-CA71-SC71
201 201 134 136 138 # CA70-CA71-CA72
202 202 137 136 138 # SC71-CA71-CA72
203 203 136 138 139 # CA71-CA72-SC72
204 204 136 138 140 # CA71-CA72-CA73
205 205 139 138 140 # SC72-CA72-CA73
206 206 138 140 141 # CA72-CA73-SC73
207 207 138 140 142 # CA72-CA73-CA74
208 208 141 140 142 # SC73-CA73-CA74
209 209 140 142 143 # CA73-CA74-SC74
210 210 140 142 144 # CA73-CA74-CA75
211 211 143 142 144 # SC74-CA74-CA75
212 212 142 144 145 # CA74-CA75-SC75
213 213 142 144 146 # CA74-CA75-CA76
214 214 145 144 146 # SC75-CA75-CA76
215 215 144 146 147 # CA75-CA76-SC76
216 216 144 146 148 # CA75-CA76-CA77
217 217 147 146 148 # SC76-CA76-CA77
218 218 146 148 149 # CA76-CA77-SC77
219 219 146 148 150 # CA76-CA77-CA78
220 220 149 148 150 # SC77-CA77-CA78
221 221 148 150 151 # CA77-CA78-SC78
222 222 148 150 152 # CA77-CA78-CA79
223 223 151 150 152 # SC78-CA78-CA79
224 224 150 152 153 # CA78-CA79-SC79
225 225 150 152 154 # CA78-CA79-CA80
226 226 153 152 154 # SC79-CA79-CA80
227 227 152 154 155 # CA79-CA80-SC80
228 228 152 154 156 # CA79-CA80-CA81
229 229 155 154 156 # SC80-CA80-CA81
230 230 154 156 157 # CA80-CA81-SC81
231 231 154 156 158 # CA80-CA81-CA82
232 232 157 156 158 # SC81-CA81-CA82
233 233 156 158 159 # CA81-CA82-SC82
234 234 156 158 160 # CA81-CA82-CA83
235 235 159 158 160 # SC82-CA82-CA83
236 236 158 160 161 # CA82-CA83-SC83
237 237 158 160 162 # CA82-CA83-CA84
238 238 161 160 162 # SC83-CA83-CA84
239 239 160 162 163 # CA83-CA84-SC84
240 240 160 162 164 # CA83-CA84-CA85
241 241 163 162 164 # SC84-CA84-CA85
242 242 162 164 165 # CA84-CA85-SC85
243 243 162 164 166 # CA84-CA85-CA86
244 244 165 164 166 # SC85-CA85-CA86
245 245 164 166 167 # CA85-CA86-SC86
246 246 164 166 168 # CA85-CA86-CA87
247 247 167 166 168 # SC86-CA86-CA87
248 248 166 168 169 # CA86-CA87-SC87
249 249 166 168 170 # CA86-CA87-CA88
250 250 169 168 170 # SC87-CA87-CA88
251 251 168 170 171 # CA87-CA88-SC88
252 252 168 170 172 # CA87-CA88-CA89
253 253 171 170 172 # SC88-CA88-CA89
254 254 170 172 173 # CA88-CA89-SC89
255 255 170 172 174 # CA88-CA89-CA90
256 256 173 172 174 # SC89-CA89-CA90
257 257 172 174 175 # CA89-CA90-SC90
258 258 172 174 176 # CA89-CA90-CA91
259 259 175 174 176 # SC90-CA90-CA91
260 260 174 176 177 # CA90-CA91-SC91
261 261 174 176 178 # CA90-CA91-CA92
262 262 177 176 178 # SC91-CA91-CA92
263 263 176 178 179 # CA91-CA92-SC92
264 264 176 178 180 # CA91-CA92-CA93
265 265 179 178 180 # SC92-CA92-CA93
266 266 178 180 181 # CA92-CA93-SC93
267 267 178 180 182 # CA92-CA93-CA94
268 268 181 180 182 # SC93-CA93-CA94
269 269 180 182 183 # CA93-CA94-SC94
270 270 180 182 184 # CA93-CA94-CA95
271 271 183 182 184 # SC94-CA94-CA95
272 272 182 184 185 # CA94-CA95-CA96
273 273 184 185 186 # CA95-CA96-SC96
274 274 184 185 187 # CA95-CA96-CA97
275 275 186 185 187 # SC96-CA96-CA97
276 276 185 187 188 # CA96-CA97-SC97
277 277 185 187 189 # CA96-CA97-CA98
278 278 188 187 189 # SC97-CA97-CA98
279 279 187 189 190 # CA97-CA98-SC98
280 280 187 189 191 # CA97-CA98-CA99
281 281 190 189 191 # SC98-CA98-CA99
282 282 189 191 192 # CA98-CA99-SC99
283 283 189 191 193 # CA98-CA99-CA100
284 284 192 191 193 # SC99-CA99-CA100
285 285 191 193 194 # CA99-CA100-SC100
286 286 191 193 195 # CA99-CA100-CA101
287 287 194 193 195 # SC100-CA100-CA101
288 288 193 195 196 # CA100-CA101-SC101
289 289 193 195 197 # CA100-CA101-CA102
290 290 196 195 197 # SC101-CA101-CA102
291 291 195 197 198 # CA101-CA102-SC102
292 292 195 197 199 # CA101-CA102-CA103
293 293 198 197 199 # SC102-CA102-CA103
294 294 197 199 200 # CA102-CA103-SC103
295 295 197 199 201 # CA102-CA103-CA104
296 296 200 199 201 # SC103-CA103-CA104
297 297 199 201 202 # CA103-CA104-SC104
298 298 199 201 203 # CA103-CA104-CA105
299 299 202 201 203 # SC104-CA104-CA105
300 300 201 203 204 # CA104-CA105-SC105
301 301 201 203 205 # CA104-CA105-CA106
302 302 204 203 205 # SC105-CA105-CA106
303 303 203 205 206 # CA105-CA106-SC106
304 304 203 205 207 # CA105-CA106-CA107
305 305 206 205 207 # SC106-CA106-CA107
306 306 205 207 208 # CA106-CA107-SC107

Dihedrals

1 1 32 31 33 34 # SC17-CA17-CA18-SC18-n1
2 2 32 31 33 34 # SC17-CA17-CA18-SC18-n3
3 3 32 31 33 35 # SC17-CA17-CA18-CA19-n1
4 4 32 31 33 35 # SC17-CA17-CA18-CA19-n3
5 5 31 33 35 36 # CA17-CA18-CA19-SC19-n1
6 6 31 33 35 36 # CA17-CA18-CA19-SC19-n3
7 7 31 33 35 37 # CA17-CA18-CA19-CA20-n1
8 8 31 33 35 37 # CA17-CA18-CA19-CA20-n3
9 9 34 33 35 36 # SC18-CA18-CA19-SC19-n1
10 10 34 33 35 36 # SC18-CA18-CA19-SC19-n3
11 11 34 33 35 37 # SC18-CA18-CA19-CA20-n1
12 12 34 33 35 37 # SC18-CA18-CA19-CA20-n3
13 13 33 35 37 38 # CA18-CA19-CA20-SC20-n1
14 14 33 35 37 38 # CA18-CA19-CA20-SC20-n3
15 15 33 35 37 39 # CA18-CA19-CA20-CA21-n1
16 16 33 35 37 39 # CA18-CA19-CA20-CA21-n3
17 17 36 35 37 38 # SC19-CA19-CA20-SC20-n1
18 18 36 35 37 38 # SC19-CA19-CA20-SC20-n3
19 19 36 35 37 39 # SC19-CA19-CA20-CA21-n1
20 20 36 35 37 39 # SC19-CA19-CA20-CA21-n3
21 21 35 37 39 40 # CA19-CA20-CA21-CA22-n1
22 22 35 37 39 40 # CA19-CA20-CA21-CA22-n3
23 23 38 37 39 40 # SC20-CA20-CA21-CA22-n1
24 24 38 37 39 40 # SC20-CA20-CA21-CA22-n3
25 25 37 39 40 41 # CA20-CA21-CA22-SC22-n1
26 26 37 39 40 41 # CA20-CA21-CA22-SC22-n3
27 27 37 39 40 42 # CA20-CA21-CA22-CA23-n1
28 28 37 39 40 42 # CA20-CA21-CA22-CA23-n3
29 29 39 40 42 43 # CA21-CA22-CA23-SC23-n1
30 30 39 40 42 43 # CA21-CA22-CA23-SC23-n3
31 31 39 40 42 44 # CA21-CA22-CA23-CA24-n1
32 32 39 40 42 44 # CA21-CA22-CA23-CA24-n3
33 33 41 40 42 43 # SC22-CA22-CA23-SC23-n1
34 34 41 40 42 43 # SC22-CA22-CA23-SC23-n3
35 35 41 40 42 44 # SC22-CA22-CA23-CA24-n1
36 36 41 40 42 44 # SC22-CA22-CA23-CA24-n3
37 37 40 42 44 45 # CA22-CA23-CA24-SC24-n1
38 38 40 42 44 45 # CA22-CA23-CA24-SC24-n3
39 39 40 42 44 46 # CA22-CA23-CA24-CA25-n1
40 40 40 42 44 46 # CA22-CA23-CA24-CA25-n3
41 41 43 42 44 45 # SC23-CA23-CA24-SC24-n1
42 42 43 42 44 45 # SC23-CA23-CA24-SC24-n3
43 43 43 42 44 46 # SC23-CA23-CA24-CA25-n1
44 44 43 42 44 46 # SC23-CA23-CA24-CA25-n3
45 45 42 44 46 47 # CA23-CA24-CA25-SC25-n1
46 46 42 44 46 47 # CA23-CA24-CA25-SC25-n3
47 47 42 44 46 48 # CA23-CA24-CA25-CA26-n1
48 48 42 44 46 48 # CA23-CA24-CA25-CA26-n3
49 49 45 44 46 47 # SC24-CA24-CA25-SC25-n1
50 50 45 44 46 47 # SC24-CA24-CA25-SC25-n3
51 51 45 44 46 48 # SC24-CA24-CA25-CA26-n1
52 52 45 44 46 48 # SC24-CA24-CA25-CA26-n3
53 53 44 46 48 49 # CA24-CA25-CA26-SC26-n1
54 54 44 46 48 49 # CA24-CA25-CA26-SC26-n3
55 55 44 46 48 50 # CA24-CA25-CA26-CA27-n1
56 56 44 46 48 50 # CA24-CA25-CA26-CA27-n3
57 57 47 46 48 49 # SC25-CA25-CA26-SC26-n1
58 58 47 46 48 49 # SC25-CA25-CA26-SC26-n3
59 59 47 46 48 50 # SC25-CA25-CA26-CA27-n1
60 60 47 46 48 50 # SC25-CA25-CA26-CA27-n3
61 61 46 48 50 51 # CA25-CA26-CA27-SC27-n1
62 62 46 48 50 51 # CA25-CA26-CA27-SC27-n3
63 63 46 48 50 52 # CA25-CA26-CA27-CA28-n1
64 64 46 48 50 52 # CA25-CA26-CA27-CA28-n3
65 65 49 48 50 51 # SC26-CA26-CA27-SC27-n1
66 66 49 48 50 51 # SC26-CA26-CA27-SC27-n3
67 67 49 48 50 52 # SC26-CA26-CA27-CA28-n1
68 68 49 48 50 52 # SC26-CA26-CA27-CA28-n3
69 69 48 50 52 53 # CA26-CA27-CA28-SC28-n1