
# Box and units  (use LJ units and periodic boundaries)
units		real
# so:
#    mass = grams/mole		# same in gromacs
#    distance = Angstroms	# nm in gromacs
#    time = femtoseconds	# ps in gromacs
#    energy = Kcal/mole		# kcal/mol in gromacs
#    velocity = Angstroms/femtosecond	# ...
#    force = Kcal/mole-Angstrom	# ...
#    temperature = Kelvin	# same in gromacs
#    pressure = atmospheres	# same in gromacs
#    dynamic viscosity = Poise	# no idea
dimension	3
atom_style	molecular
boundary	p p p


# Pair interactions require lists of neighbours to be calculated
neighbor	5.0 nsq
neigh_modify	every 1 delay 10 check yes

# define interactions
pair_style	lj12106/cut  30.0 # same as in md_sample.mdp from the smog-model web-tool
pair_modify	shift yes
bond_style	harmonic
angle_style	harmonic
dihedral_style	charmm
special_bonds	lj 0.0 0.0 0.0 angle yes dihedral yes # 3 exclusions

# READ "start" data file
read_data ../../protein/ranaspumin/4-coarsegrained/data.input
  orthogonal box = (-200 -200 -200) to (200 200 200)
  1 by 2 by 2 MPI processor grid
  reading atoms ...
  185 atoms
  scanning bonds ...
  2 = max bonds/atom
  scanning angles ...
  3 = max angles/atom
  scanning dihedrals ...
  8 = max dihedrals/atom
  reading bonds ...
  185 bonds
  reading angles ...
  270 angles
  reading dihedrals ...
  578 dihedrals
  3 = max # of 1-2 neighbors
  5 = max # of 1-3 neighbors
  10 = max # of 1-4 neighbors
  544 = # of 1-3 neighbors before angle trim
  540 = # of 1-3 neighbors after angle trim
  991 = # of 1-4 neighbors before dihedral trim
  578 = # of 1-4 neighbors after dihedral trim
  11 = max # of special neighbors

# define coeffs
include ../../protein/ranaspumin/4-coarsegrained/settings.param
pair_coeff 1 1 0.000000e+00 0.000000e+00 4.009755e+04 # CA1-CA1 type=non-native eps=0.002390 sigma=4.000000
pair_coeff 1 2 0.000000e+00 0.000000e+00 4.009755e+04 # CA1-SC1 type=non-native eps=0.002390 sigma=4.000000
pair_coeff 1 3 0.000000e+00 0.000000e+00 4.009755e+04 # CA1-CA2 type=non-native eps=0.002390 sigma=4.000000
pair_coeff 1 4 0.000000e+00 0.000000e+00 4.009755e+04 # CA1-SC2 type=non-native eps=0.002390 sigma=4.000000
pair_coeff 1 5 0.000000e+00 0.000000e+00 4.009755e+04 # CA1-CA3 type=non-native eps=0.002390 sigma=4.000000
pair_coeff 1 6 0.000000e+00 0.000000e+00 4.009755e+04 # CA1-SC3 type=non-native eps=0.002390 sigma=4.000000
pair_coeff 1 7 0.000000e+00 0.000000e+00 4.009755e+04 # CA1-CA4 type=non-native eps=0.002390 sigma=4.000000
pair_coeff 1 8 0.000000e+00 0.000000e+00 4.009755e+04 # CA1-SC4 type=non-native eps=0.002390 sigma=4.000000
pair_coeff 1 9 0.000000e+00 0.000000e+00 4.009755e+04 # CA1-CA5 type=non-native eps=0.002390 sigma=4.000000
pair_coeff 1 10 0.000000e+00 0.000000e+00 4.009755e+04 # CA1-CA6 type=non-native eps=0.002390 sigma=4.000000
pair_coeff 1 11 0.000000e+00 0.000000e+00 4.009755e+04 # CA1-SC6 type=non-native eps=0.002390 sigma=4.000000
pair_coeff 1 12 0.000000e+00 0.000000e+00 4.009755e+04 # CA1-CA7 type=non-native eps=0.002390 sigma=4.000000
pair_coeff 1 13 0.000000e+00 0.000000e+00 4.009755e+04 # CA1-SC7 type=non-native eps=0.002390 sigma=4.000000
pair_coeff 1 14 0.000000e+00 0.000000e+00 4.009755e+04 # CA1-CA8 type=non-native eps=0.002390 sigma=4.000000
pair_coeff 1 15 0.000000e+00 0.000000e+00 4.009755e+04 # CA1-SC8 type=non-native eps=0.002390 sigma=4.000000
pair_coeff 1 16 0.000000e+00 0.000000e+00 4.009755e+04 # CA1-CA9 type=non-native eps=0.002390 sigma=4.000000
pair_coeff 1 17 0.000000e+00 0.000000e+00 6.317440e+04 # CA1-SC9 type=non-native eps=0.002390 sigma=4.154435
pair_coeff 1 18 0.000000e+00 0.000000e+00 4.009755e+04 # CA1-CA10 type=non-native eps=0.002390 sigma=4.000000
pair_coeff 1 19 0.000000e+00 0.000000e+00 4.009755e+04 # CA1-SC10 type=non-native eps=0.002390 sigma=4.000000
pair_coeff 1 20 0.000000e+00 0.000000e+00 4.009755e+04 # CA1-CA11 type=non-native eps=0.002390 sigma=4.000000
pair_coeff 1 21 0.000000e+00 0.000000e+00 6.317440e+04 # CA1-SC11 type=non-native eps=0.002390 sigma=4.154435
pair_coeff 1 22 0.000000e+00 0.000000e+00 4.009755e+04 # CA1-CA12 type=non-native eps=0.002390 sigma=4.000000
pair_coeff 1 23 0.000000e+00 0.000000e+00 4.009755e+04 # CA1-SC12 type=non-native eps=0.002390 sigma=4.000000
pair_coeff 1 24 0.000000e+00 0.000000e+00 4.009755e+04 # CA1-CA13 type=non-native eps=0.002390 sigma=4.000000
pair_coeff 1 25 0.000000e+00 0.000000e+00 6.317440e+04 # CA1-SC13 type=non-native eps=0.002390 sigma=4.154435
pair_coeff 1 26 0.000000e+00 0.000000e+00 4.009755e+04 # CA1-CA14 type=non-native eps=0.002390 sigma=4.000000
pair_coeff 1 27 0.000000e+00 0.000000e+00 4.009755e+04 # CA1-SC14 type=non-native eps=0.002390 sigma=4.000000
pair_coeff 1 28 0.000000e+00 0.000000e+00 4.009755e+04 # CA1-CA15 type=non-native eps=0.002390 sigma=4.000000
pair_coeff 1 29 0.000000e+00 0.000000e+00 2.286802e+04 # CA1-SC15 type=non-native eps=0.002390 sigma=3.817121
pair_coeff 1 30 0.000000e+00 0.000000e+00 4.009755e+04 # CA1-CA16 type=non-native eps=0.002390 sigma=4.000000
pair_coeff 1 31 0.000000e+00 0.000000e+00 2.286802e+04 # CA1-SC16 type=non-native eps=0.002390 sigma=3.817121
pair_coeff 1 32 0.000000e+00 0.000000e+00 4.009755e+04 # CA1-CA17 type=non-native eps=0.002390 sigma=4.000000
pair_coeff 1 33 0.000000e+00 0.000000e+00 4.009755e+04 # CA1-SC17 type=non-native eps=0.002390 sigma=4.000000
pair_coeff 1 34 0.000000e+00 0.000000e+00 4.009755e+04 # CA1-CA18 type=non-native eps=0.002390 sigma=4.000000
pair_coeff 1 35 0.000000e+00 0.000000e+00 4.009755e+04 # CA1-SC18 type=non-native eps=0.002390 sigma=4.000000
pair_coeff 1 36 0.000000e+00 0.000000e+00 4.009755e+04 # CA1-CA19 type=non-native eps=0.002390 sigma=4.000000
pair_coeff 1 37 0.000000e+00 0.000000e+00 4.009755e+04 # CA1-SC19 type=non-native eps=0.002390 sigma=4.000000
pair_coeff 1 38 0.000000e+00 0.000000e+00 4.009755e+04 # CA1-CA20 type=non-native eps=0.002390 sigma=4.000000
pair_coeff 1 39 0.000000e+00 0.000000e+00 4.009755e+04 # CA1-SC20 type=non-native eps=0.002390 sigma=4.000000
pair_coeff 1 40 0.000000e+00 0.000000e+00 4.009755e+04 # CA1-CA21 type=non-native eps=0.002390 sigma=4.000000
pair_coeff 1 41 0.000000e+00 0.000000e+00 1.293687e+05 # CA1-SC21 type=non-native eps=0.002390 sigma=4.410142
pair_coeff 1 42 0.000000e+00 0.000000e+00 4.009755e+04 # CA1-CA22 type=non-native eps=0.002390 sigma=4.000000
pair_coeff 1 43 0.000000e+00 0.000000e+00 4.009755e+04 # CA1-CA23 type=non-native eps=0.002390 sigma=4.000000
pair_coeff 1 44 0.000000e+00 0.000000e+00 6.317440e+04 # CA1-SC23 type=non-native eps=0.002390 sigma=4.154435
pair_coeff 1 45 0.000000e+00 0.000000e+00 4.009755e+04 # CA1-CA24 type=non-native eps=0.002390 sigma=4.000000
pair_coeff 1 46 0.000000e+00 0.000000e+00 6.317440e+04 # CA1-SC24 type=non-native eps=0.002390 sigma=4.154435
pair_coeff 1 47 0.000000e+00 0.000000e+00 4.009755e+04 # CA1-CA25 type=non-native eps=0.002390 sigma=4.000000
pair_coeff 1 48 0.000000e+00 0.000000e+00 4.009755e+04 # CA1-SC25 type=non-native eps=0.002390 sigma=4.000000
pair_coeff 1 49 0.000000e+00 0.000000e+00 4.009755e+04 # CA1-CA26 type=non-native eps=0.002390 sigma=4.000000
pair_coeff 1 50 0.000000e+00 0.000000e+00 4.009755e+04 # CA1-SC26 type=non-native eps=0.002390 sigma=4.000000
pair_coeff 1 51 0.000000e+00 0.000000e+00 4.009755e+04 # CA1-CA27 type=non-native eps=0.002390 sigma=4.000000
pair_coeff 1 52 0.000000e+00 0.000000e+00 4.009755e+04 # CA1-SC27 type=non-native eps=0.002390 sigma=4.000000
pair_coeff 1 53 0.000000e+00 0.000000e+00 4.009755e+04 # CA1-CA28 type=non-native eps=0.002390 sigma=4.000000
pair_coeff 1 54 0.000000e+00 0.000000e+00 6.317440e+04 # CA1-SC28 type=non-native eps=0.002390 sigma=4.154435
pair_coeff 1 55 0.000000e+00 0.000000e+00 4.009755e+04 # CA1-CA29 type=non-native eps=0.002390 sigma=4.000000
pair_coeff 1 56 -1.088004e+05 0.000000e+00 1.238235e+10 # CA1-SC29 type=native eps=0.239000 sigma=7.813886
pair_coeff 1 57 0.000000e+00 0.000000e+00 4.009755e+04 # CA1-CA30 type=non-native eps=0.002390 sigma=4.000000
pair_coeff 1 58 0.000000e+00 0.000000e+00 6.317440e+04 # CA1-SC30 type=non-native eps=0.002390 sigma=4.154435
pair_coeff 1 59 0.000000e+00 0.000000e+00 4.009755e+04 # CA1-CA31 type=non-native eps=0.002390 sigma=4.000000
pair_coeff 1 60 0.000000e+00 0.000000e+00 4.009755e+04 # CA1-SC31 type=non-native eps=0.002390 sigma=4.000000
pair_coeff 1 61 0.000000e+00 0.000000e+00 4.009755e+04 # CA1-CA32 type=non-native eps=0.002390 sigma=4.000000
pair_coeff 1 62 0.000000e+00 0.000000e+00 4.009755e+04 # CA1-SC32 type=non-native eps=0.002390 sigma=4.000000
pair_coeff 1 63 0.000000e+00 0.000000e+00 4.009755e+04 # CA1-CA33 type=non-native eps=0.002390 sigma=4.000000
pair_coeff 1 64 0.000000e+00 0.000000e+00 4.009755e+04 # CA1-SC33 type=non-native eps=0.002390 sigma=4.000000
pair_coeff 1 65 0.000000e+00 0.000000e+00 4.009755e+04 # CA1-CA34 type=non-native eps=0.002390 sigma=4.000000
pair_coeff 1 66 0.000000e+00 0.000000e+00 6.317440e+04 # CA1-SC34 type=non-native eps=0.002390 sigma=4.154435
pair_coeff 1 67 0.000000e+00 0.000000e+00 4.009755e+04 # CA1-CA35 type=non-native eps=0.002390 sigma=4.000000
pair_coeff 1 68 0.000000e+00 0.000000e+00 4.009755e+04 # CA1-SC35 type=non-native eps=0.002390 sigma=4.000000
pair_coeff 1 69 0.000000e+00 0.000000e+00 4.009755e+04 # CA1-CA36 type=non-native eps=0.002390 sigma=4.000000
pair_coeff 1 70 0.000000e+00 0.000000e+00 6.317440e+04 # CA1-SC36 type=non-native eps=0.002390 sigma=4.154435
pair_coeff 1 71 0.000000e+00 0.000000e+00 4.009755e+04 # CA1-CA37 type=non-native eps=0.002390 sigma=4.000000
pair_coeff 1 72 0.000000e+00 0.000000e+00 1.737309e+05 # CA1-SC37 type=non-native eps=0.002390 sigma=4.519842
pair_coeff 1 73 0.000000e+00 0.000000e+00 4.009755e+04 # CA1-CA38 type=non-native eps=0.002390 sigma=4.000000
pair_coeff 1 74 0.000000e+00 0.000000e+00 4.009755e+04 # CA1-CA39 type=non-native eps=0.002390 sigma=4.000000
pair_coeff 1 75 0.000000e+00 0.000000e+00 2.286802e+04 # CA1-SC39 type=non-native eps=0.002390 sigma=3.817121
pair_coeff 1 76 0.000000e+00 0.000000e+00 4.009755e+04 # CA1-CA40 type=non-native eps=0.002390 sigma=4.000000
pair_coeff 1 77 0.000000e+00 0.000000e+00 4.009755e+04 # CA1-SC40 type=non-native eps=0.002390 sigma=4.000000
pair_coeff 1 78 0.000000e+00 0.000000e+00 4.009755e+04 # CA1-CA41 type=non-native eps=0.002390 sigma=4.000000
pair_coeff 1 79 0.000000e+00 0.000000e+00 2.286802e+04 # CA1-SC41 type=non-native eps=0.002390 sigma=3.817121
pair_coeff 1 80 0.000000e+00 0.000000e+00 4.009755e+04 # CA1-CA42 type=non-native eps=0.002390 sigma=4.000000
pair_coeff 1 81 0.000000e+00 0.000000e+00 6.317440e+04 # CA1-SC42 type=non-native eps=0.002390 sigma=4.154435
pair_coeff 1 82 0.000000e+00 0.000000e+00 4.009755e+04 # CA1-CA43 type=non-native eps=0.002390 sigma=4.000000
pair_coeff 1 83 0.000000e+00 0.000000e+00 4.009755e+04 # CA1-SC43 type=non-native eps=0.002390 sigma=4.000000
pair_coeff 1 84 0.000000e+00 0.000000e+00 4.009755e+04 # CA1-CA44 type=non-native eps=0.002390 sigma=4.000000
pair_coeff 1 85 0.000000e+00 0.000000e+00 4.009755e+04 # CA1-SC44 type=non-native eps=0.002390 sigma=4.000000
pair_coeff 1 86 0.000000e+00 0.000000e+00 4.009755e+04 # CA1-CA45 type=non-native eps=0.002390 sigma=4.000000
pair_coeff 1 87 0.000000e+00 0.000000e+00 6.317440e+04 # CA1-SC45 type=non-native eps=0.002390 sigma=4.154435
pair_coeff 1 88 0.000000e+00 0.000000e+00 4.009755e+04 # CA1-CA46 type=non-native eps=0.002390 sigma=4.000000
pair_coeff 1 89 0.000000e+00 0.000000e+00 4.009755e+04 # CA1-SC46 type=non-native eps=0.002390 sigma=4.000000
pair_coeff 1 90 0.000000e+00 0.000000e+00 4.009755e+04 # CA1-CA47 type=non-native eps=0.002390 sigma=4.000000
pair_coeff 1 91 0.000000e+00 0.000000e+00 4.009755e+04 # CA1-SC47 type=non-native eps=0.002390 sigma=4.000000
pair_coeff 1 92 0.000000e+00 0.000000e+00 4.009755e+04 # CA1-CA48 type=non-native eps=0.002390 sigma=4.000000
pair_coeff 1 93 0.000000e+00 0.000000e+00 6.317440e+04 # CA1-SC48 type=non-native eps=0.002390 sigma=4.154435
pair_coeff 1 94 0.000000e+00 0.000000e+00 4.009755e+04 # CA1-CA49 type=non-native eps=0.002390 sigma=4.000000
pair_coeff 1 95 0.000000e+00 0.000000e+00 2.286802e+04 # CA1-SC49 type=non-native eps=0.002390 sigma=3.817121
pair_coeff 1 96 0.000000e+00 0.000000e+00 4.009755e+04 # CA1-CA50 type=non-native eps=0.002390 sigma=4.000000
pair_coeff 1 97 0.000000e+00 0.000000e+00 1.085818e+04 # CA1-SC50 type=non-native eps=0.002390 sigma=3.587401
pair_coeff 1 98 0.000000e+00 0.000000e+00 4.009755e+04 # CA1-CA51 type=non-native eps=0.002390 sigma=4.000000
pair_coeff 1 99 0.000000e+00 0.000000e+00 6.317440e+04 # CA1-SC51 type=non-native eps=0.002390 sigma=4.154435
pair_coeff 1 100 0.000000e+00 0.000000e+00 4.009755e+04 # CA1-CA52 type=non-native eps=0.002390 sigma=4.000000
pair_coeff 1 101 0.000000e+00 0.000000e+00 4.009755e+04 # CA1-SC52 type=non-native eps=0.002390 sigma=4.000000
pair_coeff 1 102 0.000000e+00 0.000000e+00 4.009755e+04 # CA1-CA53 type=non-native eps=0.002390 sigma=4.000000
pair_coeff 1 103 0.000000e+00 0.000000e+00 6.317440e+04 # CA1-SC53 type=non-native eps=0.002390 sigma=4.154435
pair_coeff 1 104 0.000000e+00 0.000000e+00 4.009755e+04 # CA1-CA54 type=non-native eps=0.002390 sigma=4.000000
pair_coeff 1 105 0.000000e+00 0.000000e+00 1.293687e+05 # CA1-SC54 type=non-native eps=0.002390 sigma=4.410142
pair_coeff 1 106 0.000000e+00 0.000000e+00 4.009755e+04 # CA1-CA55 type=non-native eps=0.002390 sigma=4.000000
pair_coeff 1 107 0.000000e+00 0.000000e+00 1.293687e+05 # CA1-SC55 type=non-native eps=0.002390 sigma=4.410142
pair_coeff 1 108 0.000000e+00 0.000000e+00 4.009755e+04 # CA1-CA56 type=non-native eps=0.002390 sigma=4.000000
pair_coeff 1 109 0.000000e+00 0.000000e+00 1.737309e+05 # CA1-SC56 type=non-native eps=0.002390 sigma=4.519842
pair_coeff 1 110 0.000000e+00 0.000000e+00 4.009755e+04 # CA1-CA57 type=non-native eps=0.002390 sigma=4.000000
pair_coeff 1 111 0.000000e+00 0.000000e+00 1.737309e+05 # CA1-SC57 type=non-native eps=0.002390 sigma=4.519842
pair_coeff 1 112 0.000000e+00 0.000000e+00 4.009755e+04 # CA1-CA58 type=non-native eps=0.002390 sigma=4.000000
pair_coeff 1 113 0.000000e+00 0.000000e+00 2.286802e+04 # CA1-SC58 type=non-native eps=0.002390 sigma=3.817121
pair_coeff 1 114 0.000000e+00 0.000000e+00 4.009755e+04 # CA1-CA59 type=non-native eps=0.002390 sigma=4.000000
pair_coeff 1 115 0.000000e+00 0.000000e+00 1.085818e+04 # CA1-SC59 type=non-native eps=0.002390 sigma=3.587401
pair_coeff 1 116 0.000000e+00 0.000000e+00 4.009755e+04 # CA1-CA60 type=non-native eps=0.002390 sigma=4.000000
pair_coeff 1 117 0.000000e+00 0.000000e+00 2.286802e+04 # CA1-SC60 type=non-native eps=0.002390 sigma=3.817121
pair_coeff 1 118 0.000000e+00 0.000000e+00 4.009755e+04 # CA1-CA61 type=non-native eps=0.002390 sigma=4.000000
pair_coeff 1 119 0.000000e+00 0.000000e+00 4.009755e+04 # CA1-SC61 type=non-native eps=0.002390 sigma=4.000000
pair_coeff 1 120 0.000000e+00 0.000000e+00 4.009755e+04 # CA1-CA62 type=non-native eps=0.002390 sigma=4.000000
pair_coeff 1 121 0.000000e+00 0.000000e+00 3.442571e+03 # CA1-SC62 type=non-native eps=0.002390 sigma=3.259921
pair_coeff 1 122 0.000000e+00 0.000000e+00 4.009755e+04 # CA1-CA63 type=non-native eps=0.002390 sigma=4.000000
pair_coeff 1 123 0.000000e+00 0.000000e+00 4.009755e+04 # CA1-CA64 type=non-native eps=0.002390 sigma=4.000000
pair_coeff 1 124 0.000000e+00 0.000000e+00 4.009755e+04 # CA1-SC64 type=non-native eps=0.002390 sigma=4.000000
pair_coeff 1 125 0.000000e+00 0.000000e+00 4.009755e+04 # CA1-CA65 type=non-native eps=0.002390 sigma=4.000000
pair_coeff 1 126 0.000000e+00 0.000000e+00 4.009755e+04 # CA1-CA66 type=non-native eps=0.002390 sigma=4.000000
pair_coeff 1 127 0.000000e+00 0.000000e+00 6.317440e+04 # CA1-SC66 type=non-native eps=0.002390 sigma=4.154435
pair_coeff 1 128 0.000000e+00 0.000000e+00 4.009755e+04 # CA1-CA67 type=non-native eps=0.002390 sigma=4.000000
pair_coeff 1 129 0.000000e+00 0.000000e+00 6.317440e+04 # CA1-SC67 type=non-native eps=0.002390 sigma=4.154435
pair_coeff 1 130 0.000000e+00 0.000000e+00 4.009755e+04 # CA1-CA68 type=non-native eps=0.002390 sigma=4.000000
pair_coeff 1 131 0.000000e+00 0.000000e+00 1.085818e+04 # CA1-SC68 type=non-native eps=0.002390 sigma=3.587401
pair_coeff 1 132 0.000000e+00 0.000000e+00 4.009755e+04 # CA1-CA69 type=non-native eps=0.002390 sigma=4.000000
pair_coeff 1 133 0.000000e+00 0.000000e+00 6.317440e+04 # CA1-SC69 type=non-native eps=0.002390 sigma=4.154435
pair_coeff 1 134 0.000000e+00 0.000000e+00 4.009755e+04 # CA1-CA70 type=non-native eps=0.002390 sigma=4.000000
pair_coeff 1 135 0.000000e+00 0.000000e+00 1.293687e+05 # CA1-SC70 type=non-native eps=0.002390 sigma=4.410142
pair_coeff 1 136 0.000000e+00 0.000000e+00 4.009755e+04 # CA1-CA71 type=non-native eps=0.002390 sigma=4.000000
pair_coeff 1 137 0.000000e+00 0.000000e+00 6.317440e+04 # CA1-SC71 type=non-native eps=0.002390 sigma=4.154435
pair_coeff 1 138 0.000000e+00 0.000000e+00 4.009755e+04 # CA1-CA72 type=non-native eps=0.002390 sigma=4.000000
pair_coeff 1 139 0.000000e+00 0.000000e+00 4.009755e+04 # CA1-SC72 type=non-native eps=0.002390 sigma=4.000000
pair_coeff 1 140 0.000000e+00 0.000000e+00 4.009755e+04 # CA1-CA73 type=non-native eps=0.002390 sigma=4.000000
pair_coeff 1 141 0.000000e+00 0.000000e+00 1.293687e+05 # CA1-SC73 type=non-native eps=0.002390 sigma=4.410142
pair_coeff 1 142 0.000000e+00 0.000000e+00 4.009755e+04 # CA1-CA74 type=non-native eps=0.002390 sigma=4.000000
pair_coeff 1 143 0.000000e+00 0.000000e+00 6.317440e+04 # CA1-SC74 type=non-native eps=0.002390 sigma=4.154435
pair_coeff 1 144 0.000000e+00 0.000000e+00 4.009755e+04 # CA1-CA75 type=non-native eps=0.002390 sigma=4.000000
pair_coeff 1 145 -8.182292e+02 0.000000e+00 1.167188e+06 # CA1-SC75 type=native eps=0.143400 sigma=3.766020
pair_coeff 1 146 0.000000e+00 0.000000e+00 4.009755e+04 # CA1-CA76 type=non-native eps=0.002390 sigma=4.000000
pair_coeff 1 147 0.000000e+00 0.000000e+00 2.286802e+04 # CA1-SC76 type=non-native eps=0.002390 sigma=3.817121
pair_coeff 1 148 0.000000e+00 0.000000e+00 4.009755e+04 # CA1-CA77 type=non-native eps=0.002390 sigma=4.000000
pair_coeff 1 149 0.000000e+00 0.000000e+00 4.009755e+04 # CA1-SC77 type=non-native eps=0.002390 sigma=4.000000
pair_coeff 1 150 0.000000e+00 0.000000e+00 4.009755e+04 # CA1-CA78 type=non-native eps=0.002390 sigma=4.000000
pair_coeff 1 151 0.000000e+00 0.000000e+00 2.286802e+04 # CA1-SC78 type=non-native eps=0.002390 sigma=3.817121
pair_coeff 1 152 -9.454089e+03 0.000000e+00 2.804805e+08 # CA1-CA79 type=native eps=0.079667 sigma=6.245284
pair_coeff 1 153 0.000000e+00 0.000000e+00 2.286802e+04 # CA1-SC79 type=non-native eps=0.002390 sigma=3.817121
pair_coeff 1 154 0.000000e+00 0.000000e+00 4.009755e+04 # CA1-CA80 type=non-native eps=0.002390 sigma=4.000000
pair_coeff 1 155 0.000000e+00 0.000000e+00 6.317440e+04 # CA1-SC80 type=non-native eps=0.002390 sigma=4.154435
pair_coeff 1 156 0.000000e+00 0.000000e+00 4.009755e+04 # CA1-CA81 type=non-native eps=0.002390 sigma=4.000000
pair_coeff 1 157 0.000000e+00 0.000000e+00 4.009755e+04 # CA1-SC81 type=non-native eps=0.002390 sigma=4.000000
pair_coeff 1 158 0.000000e+00 0.000000e+00 4.009755e+04 # CA1-CA82 type=non-native eps=0.002390 sigma=4.000000
pair_coeff 1 159 0.000000e+00 0.000000e+00 2.286802e+04 # CA1-SC82 type=non-native eps=0.002390 sigma=3.817121
pair_coeff 1 160 0.000000e+00 0.000000e+00 4.009755e+04 # CA1-CA83 type=non-native eps=0.002390 sigma=4.000000
pair_coeff 1 161 0.000000e+00 0.000000e+00 4.009755e+04 # CA1-CA84 type=non-native eps=0.002390 sigma=4.000000
pair_coeff 1 162 0.000000e+00 0.000000e+00 1.293687e+05 # CA1-SC84 type=non-native eps=0.002390 sigma=4.410142
pair_coeff 1 163 0.000000e+00 0.000000e+00 4.009755e+04 # CA1-CA85 type=non-native eps=0.002390 sigma=4.000000
pair_coeff 1 164 0.000000e+00 0.000000e+00 6.317440e+04 # CA1-SC85 type=non-native eps=0.002390 sigma=4.154435
pair_coeff 1 165 0.000000e+00 0.000000e+00 4.009755e+04 # CA1-CA86 type=non-native eps=0.002390 sigma=4.000000
pair_coeff 1 166 0.000000e+00 0.000000e+00 1.085818e+04 # CA1-SC86 type=non-native eps=0.002390 sigma=3.587401
pair_coeff 1 167 0.000000e+00 0.000000e+00 4.009755e+04 # CA1-CA87 type=non-native eps=0.002390 sigma=4.000000
pair_coeff 1 168 0.000000e+00 0.000000e+00 1.293687e+05 # CA1-SC87 type=non-native eps=0.002390 sigma=4.410142
pair_coeff 1 169 0.000000e+00 0.000000e+00 4.009755e+04 # CA1-CA88 type=non-native eps=0.002390 sigma=4.000000
pair_coeff 1 170 0.000000e+00 0.000000e+00 6.317440e+04 # CA1-SC88 type=non-native eps=0.002390 sigma=4.154435
pair_coeff 1 171 0.000000e+00 0.000000e+00 4.009755e+04 # CA1-CA89 type=non-native eps=0.002390 sigma=4.000000
pair_coeff 1 172 0.000000e+00 0.000000e+00 4.009755e+04 # CA1-SC89 type=non-native eps=0.002390 sigma=4.000000
pair_coeff 1 173 0.000000e+00 0.000000e+00 4.009755e+04 # CA1-CA90 type=non-native eps=0.002390 sigma=4.000000
pair_coeff 1 174 0.000000e+00 0.000000e+00 4.009755e+04 # CA1-SC90 type=non-native eps=0.002390 sigma=4.000000
pair_coeff 1 175 0.000000e+00 0.000000e+00 4.009755e+04 # CA1-CA91 type=non-native eps=0.002390 sigma=4.000000
pair_coeff 1 176 0.000000e+00 0.000000e+00 4.009755e+04 # CA1-SC91 type=non-native eps=0.002390 sigma=4.000000
pair_coeff 1 177 0.000000e+00 0.000000e+00 4.009755e+04 # CA1-CA92 type=non-native eps=0.002390 sigma=4.000000
pair_coeff 1 178 0.000000e+00 0.000000e+00 4.009755e+04 # CA1-SC92 type=non-native eps=0.002390 sigma=4.000000
pair_coeff 1 179 0.000000e+00 0.000000e+00 4.009755e+04 # CA1-CA93 type=non-native eps=0.002390 sigma=4.000000
pair_coeff 1 180 0.000000e+00 0.000000e+00 4.009755e+04 # CA1-SC93 type=non-native eps=0.002390 sigma=4.000000
pair_coeff 1 181 0.000000e+00 0.000000e+00 4.009755e+04 # CA1-CA94 type=non-native eps=0.002390 sigma=4.000000
pair_coeff 1 182 0.000000e+00 0.000000e+00 4.009755e+04 # CA1-SC94 type=non-native eps=0.002390 sigma=4.000000
pair_coeff 1 183 0.000000e+00 0.000000e+00 4.009755e+04 # CA1-CA95 type=non-native eps=0.002390 sigma=4.000000
pair_coeff 1 184 0.000000e+00 0.000000e+00 4.009755e+04 # CA1-CA96 type=non-native eps=0.002390 sigma=4.000000
pair_coeff 1 185 0.000000e+00 0.000000e+00 2.264320e+05 # CA1-SC96 type=non-native eps=0.002390 sigma=4.620741
pair_coeff 2 2 0.000000e+00 0.000000e+00 4.009755e+04 # SC1-SC1 type=non-native eps=0.002390 sigma=4.000000
pair_coeff 2 3 0.000000e+00 0.000000e+00 4.009755e+04 # SC1-CA2 type=non-native eps=0.002390 sigma=4.000000
pair_coeff 2 4 0.000000e+00 0.000000e+00 4.009755e+04 # SC1-SC2 type=non-native eps=0.002390 sigma=4.000000
pair_coeff 2 5 0.000000e+00 0.000000e+00 4.009755e+04 # SC1-CA3 type=non-native eps=0.002390 sigma=4.000000
pair_coeff 2 6 0.000000e+00 0.000000e+00 4.009755e+04 # SC1-SC3 type=non-native eps=0.002390 sigma=4.000000
pair_coeff 2 7 0.000000e+00 0.000000e+00 4.009755e+04 # SC1-CA4 type=non-native eps=0.002390 sigma=4.000000
pair_coeff 2 8 0.000000e+00 0.000000e+00 4.009755e+04 # SC1-SC4 type=non-native eps=0.002390 sigma=4.000000
pair_coeff 2 9 0.000000e+00 0.000000e+00 4.009755e+04 # SC1-CA5 type=non-native eps=0.002390 sigma=4.000000
pair_coeff 2 10 0.000000e+00 0.000000e+00 4.009755e+04 # SC1-CA6 type=non-native eps=0.002390 sigma=4.000000
pair_coeff 2 11 0.000000e+00 0.000000e+00 4.009755e+04 # SC1-SC6 type=non-native eps=0.002390 sigma=4.000000
pair_coeff 2 12 0.000000e+00 0.000000e+00 4.009755e+04 # SC1-CA7 type=non-native eps=0.002390 sigma=4.000000
pair_coeff 2 13 0.000000e+00 0.000000e+00 4.009755e+04 # SC1-SC7 type=non-native eps=0.002390 sigma=4.000000
pair_coeff 2 14 0.000000e+00 0.000000e+00 4.009755e+04 # SC1-CA8 type=non-native eps=0.002390 sigma=4.000000
pair_coeff 2 15 0.000000e+00 0.000000e+00 4.009755e+04 # SC1-SC8 type=non-native eps=0.002390 sigma=4.000000
pair_coeff 2 16 0.000000e+00 0.000000e+00 4.009755e+04 # SC1-CA9 type=non-native eps=0.002390 sigma=4.000000
pair_coeff 2 17 0.000000e+00 0.000000e+00 6.317440e+04 # SC1-SC9 type=non-native eps=0.002390 sigma=4.154435
pair_coeff 2 18 0.000000e+00 0.000000e+00 4.009755e+04 # SC1-CA10 type=non-native eps=0.002390 sigma=4.000000
pair_coeff 2 19 0.000000e+00 0.000000e+00 4.009755e+04 # SC1-SC10 type=non-native eps=0.002390 sigma=4.000000
pair_coeff 2 20 0.000000e+00 0.000000e+00 4.009755e+04 # SC1-CA11 type=non-native eps=0.002390 sigma=4.000000
pair_coeff 2 21 0.000000e+00 0.000000e+00 6.317440e+04 # SC1-SC11 type=non-native eps=0.002390 sigma=4.154435
pair_coeff 2 22 0.000000e+00 0.000000e+00 4.009755e+04 # SC1-CA12 type=non-native eps=0.002390 sigma=4.000000
pair_coeff 2 23 0.000000e+00 0.000000e+00 4.009755e+04 # SC1-SC12 type=non-native eps=0.002390 sigma=4.000000
pair_coeff 2 24 0.000000e+00 0.000000e+00 4.009755e+04 # SC1-CA13 type=non-native eps=0.002390 sigma=4.000000
pair_coeff 2 25 0.000000e+00 0.000000e+00 6.317440e+04 # SC1-SC13 type=non-native eps=0.002390 sigma=4.154435
pair_coeff 2 26 0.000000e+00 0.000000e+00 4.009755e+04 # SC1-CA14 type=non-native eps=0.002390 sigma=4.000000
pair_coeff 2 27 0.000000e+00 0.000000e+00 4.009755e+04 # SC1-SC14 type=non-native eps=0.002390 sigma=4.000000
pair_coeff 2 28 0.000000e+00 0.000000e+00 4.009755e+04 # SC1-CA15 type=non-native eps=0.002390 sigma=4.000000
pair_coeff 2 29 0.000000e+00 0.000000e+00 2.286802e+04 # SC1-SC15 type=non-native eps=0.002390 sigma=3.817121
pair_coeff 2 30 0.000000e+00 0.000000e+00 4.009755e+04 # SC1-CA16 type=non-native eps=0.002390 sigma=4.000000
pair_coeff 2 31 0.000000e+00 0.000000e+00 2.286802e+04 # SC1-SC16 type=non-native eps=0.002390 sigma=3.817121
pair_coeff 2 32 0.000000e+00 0.000000e+00 4.009755e+04 # SC1-CA17 type=non-native eps=0.002390 sigma=4.000000
pair_coeff 2 33 0.000000e+00 0.000000e+00 4.009755e+04 # SC1-SC17 type=non-native eps=0.002390 sigma=4.000000
pair_coeff 2 34 0.000000e+00 0.000000e+00 4.009755e+04 # SC1-CA18 type=non-native eps=0.002390 sigma=4.000000
pair_coeff 2 35 0.000000e+00 0.000000e+00 4.009755e+04 # SC1-SC18 type=non-native eps=0.002390 sigma=4.000000
pair_coeff 2 36 0.000000e+00 0.000000e+00 4.009755e+04 # SC1-CA19 type=non-native eps=0.002390 sigma=4.000000
pair_coeff 2 37 0.000000e+00 0.000000e+00 4.009755e+04 # SC1-SC19 type=non-native eps=0.002390 sigma=4.000000
pair_coeff 2 38 0.000000e+00 0.000000e+00 4.009755e+04 # SC1-CA20 type=non-native eps=0.002390 sigma=4.000000
pair_coeff 2 39 0.000000e+00 0.000000e+00 4.009755e+04 # SC1-SC20 type=non-native eps=0.002390 sigma=4.000000
pair_coeff 2 40 0.000000e+00 0.000000e+00 4.009755e+04 # SC1-CA21 type=non-native eps=0.002390 sigma=4.000000
pair_coeff 2 41 0.000000e+00 0.000000e+00 1.293687e+05 # SC1-SC21 type=non-native eps=0.002390 sigma=4.410142
pair_coeff 2 42 0.000000e+00 0.000000e+00 4.009755e+04 # SC1-CA22 type=non-native eps=0.002390 sigma=4.000000
pair_coeff 2 43 0.000000e+00 0.000000e+00 4.009755e+04 # SC1-CA23 type=non-native eps=0.002390 sigma=4.000000
pair_coeff 2 44 0.000000e+00 0.000000e+00 6.317440e+04 # SC1-SC23 type=non-native eps=0.002390 sigma=4.154435
pair_coeff 2 45 0.000000e+00 0.000000e+00 4.009755e+04 # SC1-CA24 type=non-native eps=0.002390 sigma=4.000000
pair_coeff 2 46 0.000000e+00 0.000000e+00 6.317440e+04 # SC1-SC24 type=non-native eps=0.002390 sigma=4.154435
pair_coeff 2 47 0.000000e+00 0.000000e+00 4.009755e+04 # SC1-CA25 type=non-native eps=0.002390 sigma=4.000000
pair_coeff 2 48 0.000000e+00 0.000000e+00 4.009755e+04 # SC1-SC25 type=non-native eps=0.002390 sigma=4.000000
pair_coeff 2 49 0.000000e+00 0.000000e+00 4.009755e+04 # SC1-CA26 type=non-native eps=0.002390 sigma=4.000000
pair_coeff 2 50 0.000000e+00 0.000000e+00 4.009755e+04 # SC1-SC26 type=non-native eps=0.002390 sigma=4.000000
pair_coeff 2 51 0.000000e+00 0.000000e+00 4.009755e+04 # SC1-CA27 type=non-native eps=0.002390 sigma=4.000000
pair_coeff 2 52 0.000000e+00 0.000000e+00 4.009755e+04 # SC1-SC27 type=non-native eps=0.002390 sigma=4.000000
pair_coeff 2 53 0.000000e+00 0.000000e+00 4.009755e+04 # SC1-CA28 type=non-native eps=0.002390 sigma=4.000000
pair_coeff 2 54 0.000000e+00 0.000000e+00 6.317440e+04 # SC1-SC28 type=non-native eps=0.002390 sigma=4.154435
pair_coeff 2 55 0.000000e+00 0.000000e+00 4.009755e+04 # SC1-CA29 type=non-native eps=0.002390 sigma=4.000000
pair_coeff 2 56 0.000000e+00 0.000000e+00 1.293687e+05 # SC1-SC29 type=non-native eps=0.002390 sigma=4.410142
pair_coeff 2 57 0.000000e+00 0.000000e+00 4.009755e+04 # SC1-CA30 type=non-native eps=0.002390 sigma=4.000000
pair_coeff 2 58 0.000000e+00 0.000000e+00 6.317440e+04 # SC1-SC30 type=non-native eps=0.002390 sigma=4.154435
pair_coeff 2 59 0.000000e+00 0.000000e+00 4.009755e+04 # SC1-CA31 type=non-native eps=0.002390 sigma=4.000000
pair_coeff 2 60 0.000000e+00 0.000000e+00 4.009755e+04 # SC1-SC31 type=non-native eps=0.002390 sigma=4.000000
pair_coeff 2 61 0.000000e+00 0.000000e+00 4.009755e+04 # SC1-CA32 type=non-native eps=0.002390 sigma=4.000000
pair_coeff 2 62 0.000000e+00 0.000000e+00 4.009755e+04 # SC1-SC32 type=non-native eps=0.002390 sigma=4.000000
pair_coeff 2 63 0.000000e+00 0.000000e+00 4.009755e+04 # SC1-CA33 type=non-native eps=0.002390 sigma=4.000000
pair_coeff 2 64 0.000000e+00 0.000000e+00 4.009755e+04 # SC1-SC33 type=non-native eps=0.002390 sigma=4.000000
pair_coeff 2 65 0.000000e+00 0.000000e+00 4.009755e+04 # SC1-CA34 type=non-native eps=0.002390 sigma=4.000000
pair_coeff 2 66 0.000000e+00 0.000000e+00 6.317440e+04 # SC1-SC34 type=non-native eps=0.002390 sigma=4.154435
pair_coeff 2 67 0.000000e+00 0.000000e+00 4.009755e+04 # SC1-CA35 type=non-native eps=0.002390 sigma=4.000000
pair_coeff 2 68 0.000000e+00 0.000000e+00 4.009755e+04 # SC1-SC35 type=non-native eps=0.002390 sigma=4.000000
pair_coeff 2 69 0.000000e+00 0.000000e+00 4.009755e+04 # SC1-CA36 type=non-native eps=0.002390 sigma=4.000000
pair_coeff 2 70 0.000000e+00 0.000000e+00 6.317440e+04 # SC1-SC36 type=non-native eps=0.002390 sigma=4.154435
pair_coeff 2 71 0.000000e+00 0.000000e+00 4.009755e+04 # SC1-CA37 type=non-native eps=0.002390 sigma=4.000000
pair_coeff 2 72 0.000000e+00 0.000000e+00 1.737309e+05 # SC1-SC37 type=non-native eps=0.002390 sigma=4.519842
pair_coeff 2 73 0.000000e+00 0.000000e+00 4.009755e+04 # SC1-CA38 type=non-native eps=0.002390 sigma=4.000000
pair_coeff 2 74 0.000000e+00 0.000000e+00 4.009755e+04 # SC1-CA39 type=non-native eps=0.002390 sigma=4.000000
pair_coeff 2 75 0.000000e+00 0.000000e+00 2.286802e+04 # SC1-SC39 type=non-native eps=0.002390 sigma=3.817121
pair_coeff 2 76 0.000000e+00 0.000000e+00 4.009755e+04 # SC1-CA40 type=non-native eps=0.002390 sigma=4.000000
pair_coeff 2 77 0.000000e+00 0.000000e+00 4.009755e+04 # SC1-SC40 type=non-native eps=0.002390 sigma=4.000000
pair_coeff 2 78 0.000000e+00 0.000000e+00 4.009755e+04 # SC1-CA41 type=non-native eps=0.002390 sigma=4.000000
pair_coeff 2 79 0.000000e+00 0.000000e+00 2.286802e+04 # SC1-SC41 type=non-native eps=0.002390 sigma=3.817121
pair_coeff 2 80 0.000000e+00 0.000000e+00 4.009755e+04 # SC1-CA42 type=non-native eps=0.002390 sigma=4.000000
pair_coeff 2 81 0.000000e+00 0.000000e+00 6.317440e+04 # SC1-SC42 type=non-native eps=0.002390 sigma=4.154435
pair_coeff 2 82 0.000000e+00 0.000000e+00 4.009755e+04 # SC1-CA43 type=non-native eps=0.002390 sigma=4.000000
pair_coeff 2 83 0.000000e+00 0.000000e+00 4.009755e+04 # SC1-SC43 type=non-native eps=0.002390 sigma=4.000000
pair_coeff 2 84 0.000000e+00 0.000000e+00 4.009755e+04 # SC1-CA44 type=non-native eps=0.002390 sigma=4.000000
pair_coeff 2 85 0.000000e+00 0.000000e+00 4.009755e+04 # SC1-SC44 type=non-native eps=0.002390 sigma=4.000000
pair_coeff 2 86 0.000000e+00 0.000000e+00 4.009755e+04 # SC1-CA45 type=non-native eps=0.002390 sigma=4.000000
pair_coeff 2 87 0.000000e+00 0.000000e+00 6.317440e+04 # SC1-SC45 type=non-native eps=0.002390 sigma=4.154435
pair_coeff 2 88 0.000000e+00 0.000000e+00 4.009755e+04 # SC1-CA46 type=non-native eps=0.002390 sigma=4.000000
pair_coeff 2 89 0.000000e+00 0.000000e+00 4.009755e+04 # SC1-SC46 type=non-native eps=0.002390 sigma=4.000000
pair_coeff 2 90 0.000000e+00 0.000000e+00 4.009755e+04 # SC1-CA47 type=non-native eps=0.002390 sigma=4.000000
pair_coeff 2 91 0.000000e+00 0.000000e+00 4.009755e+04 # SC1-SC47 type=non-native eps=0.002390 sigma=4.000000
pair_coeff 2 92 0.000000e+00 0.000000e+00 4.009755e+04 # SC1-CA48 type=non-native eps=0.002390 sigma=4.000000
pair_coeff 2 93 0.000000e+00 0.000000e+00 6.317440e+04 # SC1-SC48 type=non-native eps=0.002390 sigma=4.154435
pair_coeff 2 94 0.000000e+00 0.000000e+00 4.009755e+04 # SC1-CA49 type=non-native eps=0.002390 sigma=4.000000
pair_coeff 2 95 0.000000e+00 0.000000e+00 2.286802e+04 # SC1-SC49 type=non-native eps=0.002390 sigma=3.817121
pair_coeff 2 96 0.000000e+00 0.000000e+00 4.009755e+04 # SC1-CA50 type=non-native eps=0.002390 sigma=4.000000
pair_coeff 2 97 0.000000e+00 0.000000e+00 1.085818e+04 # SC1-SC50 type=non-native eps=0.002390 sigma=3.587401
pair_coeff 2 98 0.000000e+00 0.000000e+00 4.009755e+04 # SC1-CA51 type=non-native eps=0.002390 sigma=4.000000
pair_coeff 2 99 0.000000e+00 0.000000e+00 6.317440e+04 # SC1-SC51 type=non-native eps=0.002390 sigma=4.154435
pair_coeff 2 100 0.000000e+00 0.000000e+00 4.009755e+04 # SC1-CA52 type=non-native eps=0.002390 sigma=4.000000
pair_coeff 2 101 0.000000e+00 0.000000e+00 4.009755e+04 # SC1-SC52 type=non-native eps=0.002390 sigma=4.000000
pair_coeff 2 102 0.000000e+00 0.000000e+00 4.009755e+04 # SC1-CA53 type=non-native eps=0.002390 sigma=4.000000
pair_coeff 2 103 0.000000e+00 0.000000e+00 6.317440e+04 # SC1-SC53 type=non-native eps=0.002390 sigma=4.154435
pair_coeff 2 104 0.000000e+00 0.000000e+00 4.009755e+04 # SC1-CA54 type=non-native eps=0.002390 sigma=4.000000
pair_coeff 2 105 0.000000e+00 0.000000e+00 1.293687e+05 # SC1-SC54 type=non-native eps=0.002390 sigma=4.410142
pair_coeff 2 106 0.000000e+00 0.000000e+00 4.009755e+04 # SC1-CA55 type=non-native eps=0.002390 sigma=4.000000
pair_coeff 2 107 0.000000e+00 0.000000e+00 1.293687e+05 # SC1-SC55 type=non-native eps=0.002390 sigma=4.410142
pair_coeff 2 108 0.000000e+00 0.000000e+00 4.009755e+04 # SC1-CA56 type=non-native eps=0.002390 sigma=4.000000
pair_coeff 2 109 0.000000e+00 0.000000e+00 1.737309e+05 # SC1-SC56 type=non-native eps=0.002390 sigma=4.519842
pair_coeff 2 110 0.000000e+00 0.000000e+00 4.009755e+04 # SC1-CA57 type=non-native eps=0.002390 sigma=4.000000
pair_coeff 2 111 0.000000e+00 0.000000e+00 1.737309e+05 # SC1-SC57 type=non-native eps=0.002390 sigma=4.519842
pair_coeff 2 112 0.000000e+00 0.000000e+00 4.009755e+04 # SC1-CA58 type=non-native eps=0.002390 sigma=4.000000
pair_coeff 2 113 0.000000e+00 0.000000e+00 2.286802e+04 # SC1-SC58 type=non-native eps=0.002390 sigma=3.817121
pair_coeff 2 114 0.000000e+00 0.000000e+00 4.009755e+04 # SC1-CA59 type=non-native eps=0.002390 sigma=4.000000
pair_coeff 2 115 0.000000e+00 0.000000e+00 1.085818e+04 # SC1-SC59 type=non-native eps=0.002390 sigma=3.587401
pair_coeff 2 116 0.000000e+00 0.000000e+00 4.009755e+04 # SC1-CA60 type=non-native eps=0.002390 sigma=4.000000
pair_coeff 2 117 0.000000e+00 0.000000e+00 2.286802e+04 # SC1-SC60 type=non-native eps=0.002390 sigma=3.817121
pair_coeff 2 118 0.000000e+00 0.000000e+00 4.009755e+04 # SC1-CA61 type=non-native eps=0.002390 sigma=4.000000
pair_coeff 2 119 0.000000e+00 0.000000e+00 4.009755e+04 # SC1-SC61 type=non-native eps=0.002390 sigma=4.000000
pair_coeff 2 120 0.000000e+00 0.000000e+00 4.009755e+04 # SC1-CA62 type=non-native eps=0.002390 sigma=4.000000
pair_coeff 2 121 0.000000e+00 0.000000e+00 3.442571e+03 # SC1-SC62 type=non-native eps=0.002390 sigma=3.259921
pair_coeff 2 122 0.000000e+00 0.000000e+00 4.009755e+04 # SC1-CA63 type=non-native eps=0.002390 sigma=4.000000
pair_coeff 2 123 0.000000e+00 0.000000e+00 4.009755e+04 # SC1-CA64 type=non-native eps=0.002390 sigma=4.000000
pair_coeff 2 124 0.000000e+00 0.000000e+00 4.009755e+04 # SC1-SC64 type=non-native eps=0.002390 sigma=4.000000
pair_coeff 2 125 0.000000e+00 0.000000e+00 4.009755e+04 # SC1-CA65 type=non-native eps=0.002390 sigma=4.000000
pair_coeff 2 126 0.000000e+00 0.000000e+00 4.009755e+04 # SC1-CA66 type=non-native eps=0.002390 sigma=4.000000
pair_coeff 2 127 0.000000e+00 0.000000e+00 6.317440e+04 # SC1-SC66 type=non-native eps=0.002390 sigma=4.154435
pair_coeff 2 128 0.000000e+00 0.000000e+00 4.009755e+04 # SC1-CA67 type=non-native eps=0.002390 sigma=4.000000
pair_coeff 2 129 0.000000e+00 0.000000e+00 6.317440e+04 # SC1-SC67 type=non-native eps=0.002390 sigma=4.154435
pair_coeff 2 130 0.000000e+00 0.000000e+00 4.009755e+04 # SC1-CA68 type=non-native eps=0.002390 sigma=4.000000
pair_coeff 2 131 0.000000e+00 0.000000e+00 1.085818e+04 # SC1-SC68 type=non-native eps=0.002390 sigma=3.587401
pair_coeff 2 132 0.000000e+00 0.000000e+00 4.009755e+04 # SC1-CA69 type=non-native eps=0.002390 sigma=4.000000
pair_coeff 2 133 0.000000e+00 0.000000e+00 6.317440e+04 # SC1-SC69 type=non-native eps=0.002390 sigma=4.154435
pair_coeff 2 134 0.000000e+00 0.000000e+00 4.009755e+04 # SC1-CA70 type=non-native eps=0.002390 sigma=4.000000
pair_coeff 2 135 0.000000e+00 0.000000e+00 1.293687e+05 # SC1-SC70 type=non-native eps=0.002390 sigma=4.410142
pair_coeff 2 136 0.000000e+00 0.000000e+00 4.009755e+04 # SC1-CA71 type=non-native eps=0.002390 sigma=4.000000
pair_coeff 2 137 0.000000e+00 0.000000e+00 6.317440e+04 # SC1-SC71 type=non-native eps=0.002390 sigma=4.154435
pair_coeff 2 138 0.000000e+00 0.000000e+00 4.009755e+04 # SC1-CA72 type=non-native eps=0.002390 sigma=4.000000
pair_coeff 2 139 0.000000e+00 0.000000e+00 4.009755e+04 # SC1-SC72 type=non-native eps=0.002390 sigma=4.000000
pair_coeff 2 140 0.000000e+00 0.000000e+00 4.009755e+04 # SC1-CA73 type=non-native eps=0.002390 sigma=4.000000
pair_coeff 2 141 0.000000e+00 0.000000e+00 1.293687e+05 # SC1-SC73 type=non-native eps=0.002390 sigma=4.410142
pair_coeff 2 142 0.000000e+00 0.000000e+00 4.009755e+04 # SC1-CA74 type=non-native eps=0.002390 sigma=4.000000
pair_coeff 2 143 0.000000e+00 0.000000e+00 6.317440e+04 # SC1-SC74 type=non-native eps=0.002390 sigma=4.154435
pair_coeff 2 144 0.000000e+00 0.000000e+00 4.009755e+04 # SC1-CA75 type=non-native eps=0.002390 sigma=4.000000
pair_coeff 2 145 -3.643360e+03 0.000000e+00 3.471253e+07 # SC1-SC75 type=native eps=0.095600 sigma=5.168157
pair_coeff 2 146 0.000000e+00 0.000000e+00 4.009755e+04 # SC1-CA76 type=non-native eps=0.002390 sigma=4.000000
pair_coeff 2 147 0.000000e+00 0.000000e+00 2.286802e+04 # SC1-SC76 type=non-native eps=0.002390 sigma=3.817121
pair_coeff 2 148 0.000000e+00 0.000000e+00 4.009755e+04 # SC1-CA77 type=non-native eps=0.002390 sigma=4.000000
pair_coeff 2 149 0.000000e+00 0.000000e+00 4.009755e+04 # SC1-SC77 type=non-native eps=0.002390 sigma=4.000000
pair_coeff 2 150 0.000000e+00 0.000000e+00 4.009755e+04 # SC1-CA78 type=non-native eps=0.002390 sigma=4.000000
pair_coeff 2 151 0.000000e+00 0.000000e+00 2.286802e+04 # SC1-SC78 type=non-native eps=0.002390 sigma=3.817121
pair_coeff 2 152 -1.645100e+04 0.000000e+00 5.661832e+08 # SC1-CA79 type=native eps=0.119500 sigma=6.401756
pair_coeff 2 153 -1.719308e+04 0.000000e+00 1.855242e+09 # SC1-SC79 type=native eps=0.039833 sigma=7.744847
pair_coeff 2 154 0.000000e+00 0.000000e+00 4.009755e+04 # SC1-CA80 type=non-native eps=0.002390 sigma=4.000000
pair_coeff 2 155 0.000000e+00 0.000000e+00 6.317440e+04 # SC1-SC80 type=non-native eps=0.002390 sigma=4.154435
pair_coeff 2 156 0.000000e+00 0.000000e+00 4.009755e+04 # SC1-CA81 type=non-native eps=0.002390 sigma=4.000000
pair_coeff 2 157 0.000000e+00 0.000000e+00 4.009755e+04 # SC1-SC81 type=non-native eps=0.002390 sigma=4.000000
pair_coeff 2 158 0.000000e+00 0.000000e+00 4.009755e+04 # SC1-CA82 type=non-native eps=0.002390 sigma=4.000000
pair_coeff 2 159 0.000000e+00 0.000000e+00 2.286802e+04 # SC1-SC82 type=non-native eps=0.002390 sigma=3.817121
pair_coeff 2 160 0.000000e+00 0.000000e+00 4.009755e+04 # SC1-CA83 type=non-native eps=0.002390 sigma=4.000000
pair_coeff 2 161 0.000000e+00 0.000000e+00 4.009755e+04 # SC1-CA84 type=non-native eps=0.002390 sigma=4.000000
pair_coeff 2 162 0.000000e+00 0.000000e+00 1.293687e+05 # SC1-SC84 type=non-native eps=0.002390 sigma=4.410142
pair_coeff 2 163 0.000000e+00 0.000000e+00 4.009755e+04 # SC1-CA85 type=non-native eps=0.002390 sigma=4.000000
pair_coeff 2 164 0.000000e+00 0.000000e+00 6.317440e+04 # SC1-SC85 type=non-native eps=0.002390 sigma=4.154435
pair_coeff 2 165 0.000000e+00 0.000000e+00 4.009755e+04 # SC1-CA86 type=non-native eps=0.002390 sigma=4.000000
pair_coeff 2 166 0.000000e+00 0.000000e+00 1.085818e+04 # SC1-SC86 type=non-native eps=0.002390 sigma=3.587401
pair_coeff 2 167 0.000000e+00 0.000000e+00 4.009755e+04 # SC1-CA87 type=non-native eps=0.002390 sigma=4.000000
pair_coeff 2 168 0.000000e+00 0.000000e+00 1.293687e+05 # SC1-SC87 type=non-native eps=0.002390 sigma=4.410142
pair_coeff 2 169 0.000000e+00 0.000000e+00 4.009755e+04 # SC1-CA88 type=non-native eps=0.002390 sigma=4.000000
pair_coeff 2 170 0.000000e+00 0.000000e+00 6.317440e+04 # SC1-SC88 type=non-native eps=0.002390 sigma=4.154435
pair_coeff 2 171 0.000000e+00 0.000000e+00 4.009755e+04 # SC1-CA89 type=non-native eps=0.002390 sigma=4.000000
pair_coeff 2 172 0.000000e+00 0.000000e+00 4.009755e+04 # SC1-SC89 type=non-native eps=0.002390 sigma=4.000000
pair_coeff 2 173 0.000000e+00 0.000000e+00 4.009755e+04 # SC1-CA90 type=non-native eps=0.002390 sigma=4.000000
pair_coeff 2 174 0.000000e+00 0.000000e+00 4.009755e+04 # SC1-SC90 type=non-native eps=0.002390 sigma=4.000000
pair_coeff 2 175 0.000000e+00 0.000000e+00 4.009755e+04 # SC1-CA91 type=non-native eps=0.002390 sigma=4.000000
pair_coeff 2 176 0.000000e+00 0.000000e+00 4.009755e+04 # SC1-SC91 type=non-native eps=0.002390 sigma=4.000000
pair_coeff 2 177 0.000000e+00 0.000000e+00 4.009755e+04 # SC1-CA92 type=non-native eps=0.002390 sigma=4.000000
pair_coeff 2 178 0.000000e+00 0.000000e+00 4.009755e+04 # SC1-SC92 type=non-native eps=0.002390 sigma=4.000000
pair_coeff 2 179 0.000000e+00 0.000000e+00 4.009755e+04 # SC1-CA93 type=non-native eps=0.002390 sigma=4.000000
pair_coeff 2 180 0.000000e+00 0.000000e+00 4.009755e+04 # SC1-SC93 type=non-native eps=0.002390 sigma=4.000000
pair_coeff 2 181 0.000000e+00 0.000000e+00 4.009755e+04 # SC1-CA94 type=non-native eps=0.002390 sigma=4.000000
pair_coeff 2 182 0.000000e+00 0.000000e+00 4.009755e+04 # SC1-SC94 type=non-native eps=0.002390 sigma=4.000000
pair_coeff 2 183 0.000000e+00 0.000000e+00 4.009755e+04 # SC1-CA95 type=non-native eps=0.002390 sigma=4.000000
pair_coeff 2 184 0.000000e+00 0.000000e+00 4.009755e+04 # SC1-CA96 type=non-native eps=0.002390 sigma=4.000000
pair_coeff 2 185 0.000000e+00 0.000000e+00 2.264320e+05 # SC1-SC96 type=non-native eps=0.002390 sigma=4.620741
pair_coeff 3 3 0.000000e+00 0.000000e+00 4.009755e+04 # CA2-CA2 type=non-native eps=0.002390 sigma=4.000000
pair_coeff 3 4 0.000000e+00 0.000000e+00 4.009755e+04 # CA2-SC2 type=non-native eps=0.002390 sigma=4.000000
pair_coeff 3 5 0.000000e+00 0.000000e+00 4.009755e+04 # CA2-CA3 type=non-native eps=0.002390 sigma=4.000000
pair_coeff 3 6 0.000000e+00 0.000000e+00 4.009755e+04 # CA2-SC3 type=non-native eps=0.002390 sigma=4.000000
pair_coeff 3 7 0.000000e+00 0.000000e+00 4.009755e+04 # CA2-CA4 type=non-native eps=0.002390 sigma=4.000000
pair_coeff 3 8 0.000000e+00 0.000000e+00 4.009755e+04 # CA2-SC4 type=non-native eps=0.002390 sigma=4.000000
pair_coeff 3 9 0.000000e+00 0.000000e+00 4.009755e+04 # CA2-CA5 type=non-native eps=0.002390 sigma=4.000000
pair_coeff 3 10 0.000000e+00 0.000000e+00 4.009755e+04 # CA2-CA6 type=non-native eps=0.002390 sigma=4.000000
pair_coeff 3 11 0.000000e+00 0.000000e+00 4.009755e+04 # CA2-SC6 type=non-native eps=0.002390 sigma=4.000000
pair_coeff 3 12 0.000000e+00 0.000000e+00 4.009755e+04 # CA2-CA7 type=non-native eps=0.002390 sigma=4.000000
pair_coeff 3 13 0.000000e+00 0.000000e+00 4.009755e+04 # CA2-SC7 type=non-native eps=0.002390 sigma=4.000000
pair_coeff 3 14 0.000000e+00 0.000000e+00 4.009755e+04 # CA2-CA8 type=non-native eps=0.002390 sigma=4.000000
pair_coeff 3 15 0.000000e+00 0.000000e+00 4.009755e+04 # CA2-SC8 type=non-native eps=0.002390 sigma=4.000000
pair_coeff 3 16 0.000000e+00 0.000000e+00 4.009755e+04 # CA2-CA9 type=non-native eps=0.002390 sigma=4.000000
pair_coeff 3 17 0.000000e+00 0.000000e+00 6.317440e+04 # CA2-SC9 type=non-native eps=0.002390 sigma=4.154435
pair_coeff 3 18 0.000000e+00 0.000000e+00 4.009755e+04 # CA2-CA10 type=non-native eps=0.002390 sigma=4.000000
pair_coeff 3 19 0.000000e+00 0.000000e+00 4.009755e+04 # CA2-SC10 type=non-native eps=0.002390 sigma=4.000000
pair_coeff 3 20 0.000000e+00 0.000000e+00 4.009755e+04 # CA2-CA11 type=non-native eps=0.002390 sigma=4.000000
pair_coeff 3 21 0.000000e+00 0.000000e+00 6.317440e+04 # CA2-SC11 type=non-native eps=0.002390 sigma=4.154435
pair_coeff 3 22 0.000000e+00 0.000000e+00 4.009755e+04 # CA2-CA12 type=non-native eps=0.002390 sigma=4.000000
pair_coeff 3 23 0.000000e+00 0.000000e+00 4.009755e+04 # CA2-SC12 type=non-native eps=0.002390 sigma=4.000000
pair_coeff 3 24 0.000000e+00 0.000000e+00 4.009755e+04 # CA2-CA13 type=non-native eps=0.002390 sigma=4.000000
pair_coeff 3 25 0.000000e+00 0.000000e+00 6.317440e+04 # CA2-SC13 type=non-native eps=0.002390 sigma=4.154435
pair_coeff 3 26 0.000000e+00 0.000000e+00 4.009755e+04 # CA2-CA14 type=non-native eps=0.002390 sigma=4.000000
pair_coeff 3 27 0.000000e+00 0.000000e+00 4.009755e+04 # CA2-SC14 type=non-native eps=0.002390 sigma=4.000000
pair_coeff 3 28 0.000000e+00 0.000000e+00 4.009755e+04 # CA2-CA15 type=non-native eps=0.002390 sigma=4.000000
pair_coeff 3 29 0.000000e+00 0.000000e+00 2.286802e+04 # CA2-SC15 type=non-native eps=0.002390 sigma=3.817121
pair_coeff 3 30 0.000000e+00 0.000000e+00 4.009755e+04 # CA2-CA16 type=non-native eps=0.002390 sigma=4.000000
pair_coeff 3 31 0.000000e+00 0.000000e+00 2.286802e+04 # CA2-SC16 type=non-native eps=0.002390 sigma=3.817121
pair_coeff 3 32 0.000000e+00 0.000000e+00 4.009755e+04 # CA2-CA17 type=non-native eps=0.002390 sigma=4.000000
pair_coeff 3 33 0.000000e+00 0.000000e+00 4.009755e+04 # CA2-SC17 type=non-native eps=0.002390 sigma=4.000000
pair_coeff 3 34 0.000000e+00 0.000000e+00 4.009755e+04 # CA2-CA18 type=non-native eps=0.002390 sigma=4.000000
pair_coeff 3 35 0.000000e+00 0.000000e+00 4.009755e+04 # CA2-SC18 type=non-native eps=0.002390 sigma=4.000000
pair_coeff 3 36 0.000000e+00 0.000000e+00 4.009755e+04 # CA2-CA19 type=non-native eps=0.002390 sigma=4.000000
pair_coeff 3 37 0.000000e+00 0.000000e+00 4.009755e+04 # CA2-SC19 type=non-native eps=0.002390 sigma=4.000000
pair_coeff 3 38 0.000000e+00 0.000000e+00 4.009755e+04 # CA2-CA20 type=non-native eps=0.002390 sigma=4.000000
pair_coeff 3 39 0.000000e+00 0.000000e+00 4.009755e+04 # CA2-SC20 type=non-native eps=0.002390 sigma=4.000000
pair_coeff 3 40 0.000000e+00 0.000000e+00 4.009755e+04 # CA2-CA21 type=non-native eps=0.002390 sigma=4.000000
pair_coeff 3 41 0.000000e+00 0.000000e+00 1.293687e+05 # CA2-SC21 type=non-native eps=0.002390 sigma=4.410142
pair_coeff 3 42 0.000000e+00 0.000000e+00 4.009755e+04 # CA2-CA22 type=non-native eps=0.002390 sigma=4.000000
pair_coeff 3 43 0.000000e+00 0.000000e+00 4.009755e+04 # CA2-CA23 type=non-native eps=0.002390 sigma=4.000000
pair_coeff 3 44 0.000000e+00 0.000000e+00 6.317440e+04 # CA2-SC23 type=non-native eps=0.002390 sigma=4.154435
pair_coeff 3 45 0.000000e+00 0.000000e+00 4.009755e+04 # CA2-CA24 type=non-native eps=0.002390 sigma=4.000000
pair_coeff 3 46 0.000000e+00 0.000000e+00 6.317440e+04 # CA2-SC24 type=non-native eps=0.002390 sigma=4.154435
pair_coeff 3 47 0.000000e+00 0.000000e+00 4.009755e+04 # CA2-CA25 type=non-native eps=0.002390 sigma=4.000000
pair_coeff 3 48 0.000000e+00 0.000000e+00 4.009755e+04 # CA2-SC25 type=non-native eps=0.002390 sigma=4.000000
pair_coeff 3 49 0.000000e+00 0.000000e+00 4.009755e+04 # CA2-CA26 type=non-native eps=0.002390 sigma=4.000000
pair_coeff 3 50 0.000000e+00 0.000000e+00 4.009755e+04 # CA2-SC26 type=non-native eps=0.002390 sigma=4.000000
pair_coeff 3 51 0.000000e+00 0.000000e+00 4.009755e+04 # CA2-CA27 type=non-native eps=0.002390 sigma=4.000000
pair_coeff 3 52 0.000000e+00 0.000000e+00 4.009755e+04 # CA2-SC27 type=non-native eps=0.002390 sigma=4.000000
pair_coeff 3 53 0.000000e+00 0.000000e+00 4.009755e+04 # CA2-CA28 type=non-native eps=0.002390 sigma=4.000000
pair_coeff 3 54 0.000000e+00 0.000000e+00 6.317440e+04 # CA2-SC28 type=non-native eps=0.002390 sigma=4.154435
pair_coeff 3 55 0.000000e+00 0.000000e+00 4.009755e+04 # CA2-CA29 type=non-native eps=0.002390 sigma=4.000000
pair_coeff 3 56 -1.314446e+04 0.000000e+00 9.036443e+08 # CA2-SC29 type=native eps=0.047800 sigma=7.184239
pair_coeff 3 57 0.000000e+00 0.000000e+00 4.009755e+04 # CA2-CA30 type=non-native eps=0.002390 sigma=4.000000
pair_coeff 3 58 0.000000e+00 0.000000e+00 6.317440e+04 # CA2-SC30 type=non-native eps=0.002390 sigma=4.154435
pair_coeff 3 59 0.000000e+00 0.000000e+00 4.009755e+04 # CA2-CA31 type=non-native eps=0.002390 sigma=4.000000
pair_coeff 3 60 0.000000e+00 0.000000e+00 4.009755e+04 # CA2-SC31 type=non-native eps=0.002390 sigma=4.000000
pair_coeff 3 61 0.000000e+00 0.000000e+00 4.009755e+04 # CA2-CA32 type=non-native eps=0.002390 sigma=4.000000
pair_coeff 3 62 0.000000e+00 0.000000e+00 4.009755e+04 # CA2-SC32 type=non-native eps=0.002390 sigma=4.000000
pair_coeff 3 63 0.000000e+00 0.000000e+00 4.009755e+04 # CA2-CA33 type=non-native eps=0.002390 sigma=4.000000
pair_coeff 3 64 0.000000e+00 0.000000e+00 4.009755e+04 # CA2-SC33 type=non-native eps=0.002390 sigma=4.000000
pair_coeff 3 65 0.000000e+00 0.000000e+00 4.009755e+04 # CA2-CA34 type=non-native eps=0.002390 sigma=4.000000
pair_coeff 3 66 0.000000e+00 0.000000e+00 6.317440e+04 # CA2-SC34 type=non-native eps=0.002390 sigma=4.154435
pair_coeff 3 67 0.000000e+00 0.000000e+00 4.009755e+04 # CA2-CA35 type=non-native eps=0.002390 sigma=4.000000
pair_coeff 3 68 0.000000e+00 0.000000e+00 4.009755e+04 # CA2-SC35 type=non-native eps=0.002390 sigma=4.000000
pair_coeff 3 69 0.000000e+00 0.000000e+00 4.009755e+04 # CA2-CA36 type=non-native eps=0.002390 sigma=4.000000
pair_coeff 3 70 0.000000e+00 0.000000e+00 6.317440e+04 # CA2-SC36 type=non-native eps=0.002390 sigma=4.154435
pair_coeff 3 71 0.000000e+00 0.000000e+00 4.009755e+04 # CA2-CA37 type=non-native eps=0.002390 sigma=4.000000
pair_coeff 3 72 0.000000e+00 0.000000e+00 1.737309e+05 # CA2-SC37 type=non-native eps=0.002390 sigma=4.519842
pair_coeff 3 73 0.000000e+00 0.000000e+00 4.009755e+04 # CA2-CA38 type=non-native eps=0.002390 sigma=4.000000
pair_coeff 3 74 0.000000e+00 0.000000e+00 4.009755e+04 # CA2-CA39 type=non-native eps=0.002390 sigma=4.000000
pair_coeff 3 75 0.000000e+00 0.000000e+00 2.286802e+04 # CA2-SC39 type=non-native eps=0.002390 sigma=3.817121
pair_coeff 3 76 0.000000e+00 0.000000e+00 4.009755e+04 # CA2-CA40 type=non-native eps=0.002390 sigma=4.000000
pair_coeff 3 77 0.000000e+00 0.000000e+00 4.009755e+04 # CA2-SC40 type=non-native eps=0.002390 sigma=4.000000
pair_coeff 3 78 0.000000e+00 0.000000e+00 4.009755e+04 # CA2-CA41 type=non-native eps=0.002390 sigma=4.000000
pair_coeff 3 79 0.000000e+00 0.000000e+00 2.286802e+04 # CA2-SC41 type=non-native eps=0.002390 sigma=3.817121
pair_coeff 3 80 0.000000e+00 0.000000e+00 4.009755e+04 # CA2-CA42 type=non-native eps=0.002390 sigma=4.000000
pair_coeff 3 81 0.000000e+00 0.000000e+00 6.317440e+04 # CA2-SC42 type=non-native eps=0.002390 sigma=4.154435
pair_coeff 3 82 0.000000e+00 0.000000e+00 4.009755e+04 # CA2-CA43 type=non-native eps=0.002390 sigma=4.000000
pair_coeff 3 83 0.000000e+00 0.000000e+00 4.009755e+04 # CA2-SC43 type=non-native eps=0.002390 sigma=4.000000
pair_coeff 3 84 0.000000e+00 0.000000e+00 4.009755e+04 # CA2-CA44 type=non-native eps=0.002390 sigma=4.000000
pair_coeff 3 85 0.000000e+00 0.000000e+00 4.009755e+04 # CA2-SC44 type=non-native eps=0.002390 sigma=4.000000
pair_coeff 3 86 0.000000e+00 0.000000e+00 4.009755e+04 # CA2-CA45 type=non-native eps=0.002390 sigma=4.000000
pair_coeff 3 87 0.000000e+00 0.000000e+00 6.317440e+04 # CA2-SC45 type=non-native eps=0.002390 sigma=4.154435
pair_coeff 3 88 0.000000e+00 0.000000e+00 4.009755e+04 # CA2-CA46 type=non-native eps=0.002390 sigma=4.000000
pair_coeff 3 89 0.000000e+00 0.000000e+00 4.009755e+04 # CA2-SC46 type=non-native eps=0.002390 sigma=4.000000
pair_coeff 3 90 0.000000e+00 0.000000e+00 4.009755e+04 # CA2-CA47 type=non-native eps=0.002390 sigma=4.000000
pair_coeff 3 91 0.000000e+00 0.000000e+00 4.009755e+04 # CA2-SC47 type=non-native eps=0.002390 sigma=4.000000
pair_coeff 3 92 0.000000e+00 0.000000e+00 4.009755e+04 # CA2-CA48 type=non-native eps=0.002390 sigma=4.000000
pair_coeff 3 93 0.000000e+00 0.000000e+00 6.317440e+04 # CA2-SC48 type=non-native eps=0.002390 sigma=4.154435
pair_coeff 3 94 0.000000e+00 0.000000e+00 4.009755e+04 # CA2-CA49 type=non-native eps=0.002390 sigma=4.000000
pair_coeff 3 95 0.000000e+00 0.000000e+00 2.286802e+04 # CA2-SC49 type=non-native eps=0.002390 sigma=3.817121
pair_coeff 3 96 0.000000e+00 0.000000e+00 4.009755e+04 # CA2-CA50 type=non-native eps=0.002390 sigma=4.000000
pair_coeff 3 97 0.000000e+00 0.000000e+00 1.085818e+04 # CA2-SC50 type=non-native eps=0.002390 sigma=3.587401
pair_coeff 3 98 0.000000e+00 0.000000e+00 4.009755e+04 # CA2-CA51 type=non-native eps=0.002390 sigma=4.000000
pair_coeff 3 99 0.000000e+00 0.000000e+00 6.317440e+04 # CA2-SC51 type=non-native eps=0.002390 sigma=4.154435
pair_coeff 3 100 0.000000e+00 0.000000e+00 4.009755e+04 # CA2-CA52 type=non-native eps=0.002390 sigma=4.000000
pair_coeff 3 101 0.000000e+00 0.000000e+00 4.009755e+04 # CA2-SC52 type=non-native eps=0.002390 sigma=4.000000
pair_coeff 3 102 0.000000e+00 0.000000e+00 4.009755e+04 # CA2-CA53 type=non-native eps=0.002390 sigma=4.000000
pair_coeff 3 103 0.000000e+00 0.000000e+00 6.317440e+04 # CA2-SC53 type=non-native eps=0.002390 sigma=4.154435
pair_coeff 3 104 0.000000e+00 0.000000e+00 4.009755e+04 # CA2-CA54 type=non-native eps=0.002390 sigma=4.000000
pair_coeff 3 105 0.000000e+00 0.000000e+00 1.293687e+05 # CA2-SC54 type=non-native eps=0.002390 sigma=4.410142
pair_coeff 3 106 0.000000e+00 0.000000e+00 4.009755e+04 # CA2-CA55 type=non-native eps=0.002390 sigma=4.000000
pair_coeff 3 107 0.000000e+00 0.000000e+00 1.293687e+05 # CA2-SC55 type=non-native eps=0.002390 sigma=4.410142
pair_coeff 3 108 0.000000e+00 0.000000e+00 4.009755e+04 # CA2-CA56 type=non-native eps=0.002390 sigma=4.000000
pair_coeff 3 109 -1.789837e+04 0.000000e+00 8.377398e+08 # CA2-SC56 type=native eps=0.095600 sigma=6.738361
pair_coeff 3 110 0.000000e+00 0.000000e+00 4.009755e+04 # CA2-CA57 type=non-native eps=0.002390 sigma=4.000000
pair_coeff 3 111 0.000000e+00 0.000000e+00 1.737309e+05 # CA2-SC57 type=non-native eps=0.002390 sigma=4.519842
pair_coeff 3 112 0.000000e+00 0.000000e+00 4.009755e+04 # CA2-CA58 type=non-native eps=0.002390 sigma=4.000000
pair_coeff 3 113 0.000000e+00 0.000000e+00 2.286802e+04 # CA2-SC58 type=non-native eps=0.002390 sigma=3.817121
pair_coeff 3 114 0.000000e+00 0.000000e+00 4.009755e+04 # CA2-CA59 type=non-native eps=0.002390 sigma=4.000000
pair_coeff 3 115 0.000000e+00 0.000000e+00 1.085818e+04 # CA2-SC59 type=non-native eps=0.002390 sigma=3.587401
pair_coeff 3 116 0.000000e+00 0.000000e+00 4.009755e+04 # CA2-CA60 type=non-native eps=0.002390 sigma=4.000000
pair_coeff 3 117 0.000000e+00 0.000000e+00 2.286802e+04 # CA2-SC60 type=non-native eps=0.002390 sigma=3.817121
pair_coeff 3 118 0.000000e+00 0.000000e+00 4.009755e+04 # CA2-CA61 type=non-native eps=0.002390 sigma=4.000000
pair_coeff 3 119 0.000000e+00 0.000000e+00 4.009755e+04 # CA2-SC61 type=non-native eps=0.002390 sigma=4.000000
pair_coeff 3 120 0.000000e+00 0.000000e+00 4.009755e+04 # CA2-CA62 type=non-native eps=0.002390 sigma=4.000000
pair_coeff 3 121 0.000000e+00 0.000000e+00 3.442571e+03 # CA2-SC62 type=non-native eps=0.002390 sigma=3.259921
pair_coeff 3 122 0.000000e+00 0.000000e+00 4.009755e+04 # CA2-CA63 type=non-native eps=0.002390 sigma=4.000000
pair_coeff 3 123 0.000000e+00 0.000000e+00 4.009755e+04 # CA2-CA64 type=non-native eps=0.002390 sigma=4.000000
pair_coeff 3 124 0.000000e+00 0.000000e+00 4.009755e+04 # CA2-SC64 type=non-native eps=0.002390 sigma=4.000000
pair_coeff 3 125 0.000000e+00 0.000000e+00 4.009755e+04 # CA2-CA65 type=non-native eps=0.002390 sigma=4.000000
pair_coeff 3 126 0.000000e+00 0.000000e+00 4.009755e+04 # CA2-CA66 type=non-native eps=0.002390 sigma=4.000000
pair_coeff 3 127 0.000000e+00 0.000000e+00 6.317440e+04 # CA2-SC66 type=non-native eps=0.002390 sigma=4.154435
pair_coeff 3 128 0.000000e+00 0.000000e+00 4.009755e+04 # CA2-CA67 type=non-native eps=0.002390 sigma=4.000000
pair_coeff 3 129 0.000000e+00 0.000000e+00 6.317440e+04 # CA2-SC67 type=non-native eps=0.002390 sigma=4.154435
pair_coeff 3 130 0.000000e+00 0.000000e+00 4.009755e+04 # CA2-CA68 type=non-native eps=0.002390 sigma=4.000000
pair_coeff 3 131 0.000000e+00 0.000000e+00 1.085818e+04 # CA2-SC68 type=non-native eps=0.002390 sigma=3.587401
pair_coeff 3 132 0.000000e+00 0.000000e+00 4.009755e+04 # CA2-CA69 type=non-native eps=0.002390 sigma=4.000000
pair_coeff 3 133 0.000000e+00 0.000000e+00 6.317440e+04 # CA2-SC69 type=non-native eps=0.002390 sigma=4.154435
pair_coeff 3 134 0.000000e+00 0.000000e+00 4.009755e+04 # CA2-CA70 type=non-native eps=0.002390 sigma=4.000000
pair_coeff 3 135 0.000000e+00 0.000000e+00 1.293687e+05 # CA2-SC70 type=non-native eps=0.002390 sigma=4.410142
pair_coeff 3 136 0.000000e+00 0.000000e+00 4.009755e+04 # CA2-CA71 type=non-native eps=0.002390 sigma=4.000000
pair_coeff 3 137 0.000000e+00 0.000000e+00 6.317440e+04 # CA2-SC71 type=non-native eps=0.002390 sigma=4.154435
pair_coeff 3 138 0.000000e+00 0.000000e+00 4.009755e+04 # CA2-CA72 type=non-native eps=0.002390 sigma=4.000000
pair_coeff 3 139 0.000000e+00 0.000000e+00 4.009755e+04 # CA2-SC72 type=non-native eps=0.002390 sigma=4.000000
pair_coeff 3 140 0.000000e+00 0.000000e+00 4.009755e+04 # CA2-CA73 type=non-native eps=0.002390 sigma=4.000000
pair_coeff 3 141 0.000000e+00 0.000000e+00 1.293687e+05 # CA2-SC73 type=non-native eps=0.002390 sigma=4.410142
pair_coeff 3 142 0.000000e+00 0.000000e+00 4.009755e+04 # CA2-CA74 type=non-native eps=0.002390 sigma=4.000000
pair_coeff 3 143 -1.365382e+04 0.000000e+00 4.875179e+08 # CA2-SC74 type=native eps=0.095600 sigma=6.441115
pair_coeff 3 144 -2.857986e+03 0.000000e+00 3.417609e+07 # CA2-CA75 type=native eps=0.059750 sigma=5.367623
pair_coeff 3 145 -3.734339e+03 0.000000e+00 5.834849e+07 # CA2-SC75 type=native eps=0.059750 sigma=5.612301
pair_coeff 3 146 0.000000e+00 0.000000e+00 4.009755e+04 # CA2-CA76 type=non-native eps=0.002390 sigma=4.000000
pair_coeff 3 147 0.000000e+00 0.000000e+00 2.286802e+04 # CA2-SC76 type=non-native eps=0.002390 sigma=3.817121
pair_coeff 3 148 0.000000e+00 0.000000e+00 4.009755e+04 # CA2-CA77 type=non-native eps=0.002390 sigma=4.000000
pair_coeff 3 149 0.000000e+00 0.000000e+00 4.009755e+04 # CA2-SC77 type=non-native eps=0.002390 sigma=4.000000
pair_coeff 3 150 0.000000e+00 0.000000e+00 4.009755e+04 # CA2-CA78 type=non-native eps=0.002390 sigma=4.000000
pair_coeff 3 151 0.000000e+00 0.000000e+00 2.286802e+04 # CA2-SC78 type=non-native eps=0.002390 sigma=3.817121
pair_coeff 3 152 0.000000e+00 0.000000e+00 4.009755e+04 # CA2-CA79 type=non-native eps=0.002390 sigma=4.000000
pair_coeff 3 153 0.000000e+00 0.000000e+00 2.286802e+04 # CA2-SC79 type=non-native eps=0.002390 sigma=3.817121
pair_coeff 3 154 0.000000e+00 0.000000e+00 4.009755e+04 # CA2-CA80 type=non-native eps=0.002390 sigma=4.000000
pair_coeff 3 155 0.000000e+00 0.000000e+00 6.317440e+04 # CA2-SC80 type=non-native eps=0.002390 sigma=4.154435
pair_coeff 3 156 0.000000e+00 0.000000e+00 4.009755e+04 # CA2-CA81 type=non-native eps=0.002390 sigma=4.000000
pair_coeff 3 157 0.000000e+00 0.000000e+00 4.009755e+04 # CA2-SC81 type=non-native eps=0.002390 sigma=4.000000
pair_coeff 3 158 0.000000e+00 0.000000e+00 4.009755e+04 # CA2-CA82 type=non-native eps=0.002390 sigma=4.000000
pair_coeff 3 159 0.000000e+00 0.000000e+00 2.286802e+04 # CA2-SC82 type=non-native eps=0.002390 sigma=3.817121
pair_coeff 3 160 0.000000e+00 0.000000e+00 4.009755e+04 # CA2-CA83 type=non-native eps=0.002390 sigma=4.000000
pair_coeff 3 161 0.000000e+00 0.000000e+00 4.009755e+04 # CA2-CA84 type=non-native eps=0.002390 sigma=4.000000
pair_coeff 3 162 0.000000e+00 0.000000e+00 1.293687e+05 # CA2-SC84 type=non-native eps=0.002390 sigma=4.410142
pair_coeff 3 163 0.000000e+00 0.000000e+00 4.009755e+04 # CA2-CA85 type=non-native eps=0.002390 sigma=4.000000
pair_coeff 3 164 0.000000e+00 0.000000e+00 6.317440e+04 # CA2-SC85 type=non-native eps=0.002390 sigma=4.154435
pair_coeff 3 165 0.000000e+00 0.000000e+00 4.009755e+04 # CA2-CA86 type=non-native eps=0.002390 sigma=4.000000
pair_coeff 3 166 0.000000e+00 0.000000e+00 1.085818e+04 # CA2-SC86 type=non-native eps=0.002390 sigma=3.587401
pair_coeff 3 167 0.000000e+00 0.000000e+00 4.009755e+04 # CA2-CA87 type=non-native eps=0.002390 sigma=4.000000
pair_coeff 3 168 0.000000e+00 0.000000e+00 1.293687e+05 # CA2-SC87 type=non-native eps=0.002390 sigma=4.410142
pair_coeff 3 169 0.000000e+00 0.000000e+00 4.009755e+04 # CA2-CA88 type=non-native eps=0.002390 sigma=4.000000
pair_coeff 3 170 0.000000e+00 0.000000e+00 6.317440e+04 # CA2-SC88 type=non-native eps=0.002390 sigma=4.154435
pair_coeff 3 171 0.000000e+00 0.000000e+00 4.009755e+04 # CA2-CA89 type=non-native eps=0.002390 sigma=4.000000
pair_coeff 3 172 0.000000e+00 0.000000e+00 4.009755e+04 # CA2-SC89 type=non-native eps=0.002390 sigma=4.000000
pair_coeff 3 173 0.000000e+00 0.000000e+00 4.009755e+04 # CA2-CA90 type=non-native eps=0.002390 sigma=4.000000
pair_coeff 3 174 0.000000e+00 0.000000e+00 4.009755e+04 # CA2-SC90 type=non-native eps=0.002390 sigma=4.000000
pair_coeff 3 175 0.000000e+00 0.000000e+00 4.009755e+04 # CA2-CA91 type=non-native eps=0.002390 sigma=4.000000
pair_coeff 3 176 0.000000e+00 0.000000e+00 4.009755e+04 # CA2-SC91 type=non-native eps=0.002390 sigma=4.000000
pair_coeff 3 177 0.000000e+00 0.000000e+00 4.009755e+04 # CA2-CA92 type=non-native eps=0.002390 sigma=4.000000
pair_coeff 3 178 0.000000e+00 0.000000e+00 4.009755e+04 # CA2-SC92 type=non-native eps=0.002390 sigma=4.000000
pair_coeff 3 179 0.000000e+00 0.000000e+00 4.009755e+04 # CA2-CA93 type=non-native eps=0.002390 sigma=4.000000
pair_coeff 3 180 0.000000e+00 0.000000e+00 4.009755e+04 # CA2-SC93 type=non-native eps=0.002390 sigma=4.000000
pair_coeff 3 181 0.000000e+00 0.000000e+00 4.009755e+04 # CA2-CA94 type=non-native eps=0.002390 sigma=4.000000
pair_coeff 3 182 0.000000e+00 0.000000e+00 4.009755e+04 # CA2-SC94 type=non-native eps=0.002390 sigma=4.000000
pair_coeff 3 183 0.000000e+00 0.000000e+00 4.009755e+04 # CA2-CA95 type=non-native eps=0.002390 sigma=4.000000
pair_coeff 3 184 0.000000e+00 0.000000e+00 4.009755e+04 # CA2-CA96 type=non-native eps=0.002390 sigma=4.000000
pair_coeff 3 185 0.000000e+00 0.000000e+00 2.264320e+05 # CA2-SC96 type=non-native eps=0.002390 sigma=4.620741
pair_coeff 4 4 0.000000e+00 0.000000e+00 4.009755e+04 # SC2-SC2 type=non-native eps=0.002390 sigma=4.000000
pair_coeff 4 5 0.000000e+00 0.000000e+00 4.009755e+04 # SC2-CA3 type=non-native eps=0.002390 sigma=4.000000
pair_coeff 4 6 0.000000e+00 0.000000e+00 4.009755e+04 # SC2-SC3 type=non-native eps=0.002390 sigma=4.000000
pair_coeff 4 7 0.000000e+00 0.000000e+00 4.009755e+04 # SC2-CA4 type=non-native eps=0.002390 sigma=4.000000
pair_coeff 4 8 0.000000e+00 0.000000e+00 4.009755e+04 # SC2-SC4 type=non-native eps=0.002390 sigma=4.000000
pair_coeff 4 9 0.000000e+00 0.000000e+00 4.009755e+04 # SC2-CA5 type=non-native eps=0.002390 sigma=4.000000
pair_coeff 4 10 0.000000e+00 0.000000e+00 4.009755e+04 # SC2-CA6 type=non-native eps=0.002390 sigma=4.000000
pair_coeff 4 11 0.000000e+00 0.000000e+00 4.009755e+04 # SC2-SC6 type=non-native eps=0.002390 sigma=4.000000
pair_coeff 4 12 0.000000e+00 0.000000e+00 4.009755e+04 # SC2-CA7 type=non-native eps=0.002390 sigma=4.000000
pair_coeff 4 13 0.000000e+00 0.000000e+00 4.009755e+04 # SC2-SC7 type=non-native eps=0.002390 sigma=4.000000
pair_coeff 4 14 0.000000e+00 0.000000e+00 4.009755e+04 # SC2-CA8 type=non-native eps=0.002390 sigma=4.000000
pair_coeff 4 15 0.000000e+00 0.000000e+00 4.009755e+04 # SC2-SC8 type=non-native eps=0.002390 sigma=4.000000
pair_coeff 4 16 0.000000e+00 0.000000e+00 4.009755e+04 # SC2-CA9 type=non-native eps=0.002390 sigma=4.000000
pair_coeff 4 17 0.000000e+00 0.000000e+00 6.317440e+04 # SC2-SC9 type=non-native eps=0.002390 sigma=4.154435
pair_coeff 4 18 0.000000e+00 0.000000e+00 4.009755e+04 # SC2-CA10 type=non-native eps=0.002390 sigma=4.000000
pair_coeff 4 19 0.000000e+00 0.000000e+00 4.009755e+04 # SC2-SC10 type=non-native eps=0.002390 sigma=4.000000
pair_coeff 4 20 0.000000e+00 0.000000e+00 4.009755e+04 # SC2-CA11 type=non-native eps=0.002390 sigma=4.000000
pair_coeff 4 21 0.000000e+00 0.000000e+00 6.317440e+04 # SC2-SC11 type=non-native eps=0.002390 sigma=4.154435
pair_coeff 4 22 0.000000e+00 0.000000e+00 4.009755e+04 # SC2-CA12 type=non-native eps=0.002390 sigma=4.000000
pair_coeff 4 23 0.000000e+00 0.000000e+00 4.009755e+04 # SC2-SC12 type=non-native eps=0.002390 sigma=4.000000
pair_coeff 4 24 0.000000e+00 0.000000e+00 4.009755e+04 # SC2-CA13 type=non-native eps=0.002390 sigma=4.000000
pair_coeff 4 25 0.000000e+00 0.000000e+00 6.317440e+04 # SC2-SC13 type=non-native eps=0.002390 sigma=4.154435
pair_coeff 4 26 0.000000e+00 0.000000e+00 4.009755e+04 # SC2-CA14 type=non-native eps=0.002390 sigma=4.000000
pair_coeff 4 27 0.000000e+00 0.000000e+00 4.009755e+04 # SC2-SC14 type=non-native eps=0.002390 sigma=4.000000
pair_coeff 4 28 0.000000e+00 0.000000e+00 4.009755e+04 # SC2-CA15 type=non-native eps=0.002390 sigma=4.000000
pair_coeff 4 29 0.000000e+00 0.000000e+00 2.286802e+04 # SC2-SC15 type=non-native eps=0.002390 sigma=3.817121
pair_coeff 4 30 0.000000e+00 0.000000e+00 4.009755e+04 # SC2-CA16 type=non-native eps=0.002390 sigma=4.000000
pair_coeff 4 31 0.000000e+00 0.000000e+00 2.286802e+04 # SC2-SC16 type=non-native eps=0.002390 sigma=3.817121
pair_coeff 4 32 0.000000e+00 0.000000e+00 4.009755e+04 # SC2-CA17 type=non-native eps=0.002390 sigma=4.000000
pair_coeff 4 33 0.000000e+00 0.000000e+00 4.009755e+04 # SC2-SC17 type=non-native eps=0.002390 sigma=4.000000
pair_coeff 4 34 0.000000e+00 0.000000e+00 4.009755e+04 # SC2-CA18 type=non-native eps=0.002390 sigma=4.000000
pair_coeff 4 35 0.000000e+00 0.000000e+00 4.009755e+04 # SC2-SC18 type=non-native eps=0.002390 sigma=4.000000
pair_coeff 4 36 0.000000e+00 0.000000e+00 4.009755e+04 # SC2-CA19 type=non-native eps=0.002390 sigma=4.000000
pair_coeff 4 37 0.000000e+00 0.000000e+00 4.009755e+04 # SC2-SC19 type=non-native eps=0.002390 sigma=4.000000
pair_coeff 4 38 0.000000e+00 0.000000e+00 4.009755e+04 # SC2-CA20 type=non-native eps=0.002390 sigma=4.000000
pair_coeff 4 39 0.000000e+00 0.000000e+00 4.009755e+04 # SC2-SC20 type=non-native eps=0.002390 sigma=4.000000
pair_coeff 4 40 0.000000e+00 0.000000e+00 4.009755e+04 # SC2-CA21 type=non-native eps=0.002390 sigma=4.000000
pair_coeff 4 41 0.000000e+00 0.000000e+00 1.293687e+05 # SC2-SC21 type=non-native eps=0.002390 sigma=4.410142
pair_coeff 4 42 0.000000e+00 0.000000e+00 4.009755e+04 # SC2-CA22 type=non-native eps=0.002390 sigma=4.000000
pair_coeff 4 43 0.000000e+00 0.000000e+00 4.009755e+04 # SC2-CA23 type=non-native eps=0.002390 sigma=4.000000
pair_coeff 4 44 0.000000e+00 0.000000e+00 6.317440e+04 # SC2-SC23 type=non-native eps=0.002390 sigma=4.154435
pair_coeff 4 45 0.000000e+00 0.000000e+00 4.009755e+04 # SC2-CA24 type=non-native eps=0.002390 sigma=4.000000
pair_coeff 4 46 0.000000e+00 0.000000e+00 6.317440e+04 # SC2-SC24 type=non-native eps=0.002390 sigma=4.154435
pair_coeff 4 47 0.000000e+00 0.000000e+00 4.009755e+04 # SC2-CA25 type=non-native eps=0.002390 sigma=4.000000
pair_coeff 4 48 -3.182892e+04 0.000000e+00 1.059707e+09 # SC2-SC25 type=native eps=0.239000 sigma=6.366474
pair_coeff 4 49 0.000000e+00 0.000000e+00 4.009755e+04 # SC2-CA26 type=non-native eps=0.002390 sigma=4.000000
pair_coeff 4 50 0.000000e+00 0.000000e+00 4.009755e+04 # SC2-SC26 type=non-native eps=0.002390 sigma=4.000000
pair_coeff 4 51 0.000000e+00 0.000000e+00 4.009755e+04 # SC2-CA27 type=non-native eps=0.002390 sigma=4.000000
pair_coeff 4 52 0.000000e+00 0.000000e+00 4.009755e+04 # SC2-SC27 type=non-native eps=0.002390 sigma=4.000000
pair_coeff 4 53 0.000000e+00 0.000000e+00 4.009755e+04 # SC2-CA28 type=non-native eps=0.002390 sigma=4.000000
pair_coeff 4 54 -3.575682e+04 0.000000e+00 1.337395e+09 # SC2-SC28 type=native eps=0.239000 sigma=6.491153
pair_coeff 4 55 0.000000e+00 0.000000e+00 4.009755e+04 # SC2-CA29 type=non-native eps=0.002390 sigma=4.000000
pair_coeff 4 56 -1.692983e+04 0.000000e+00 3.747637e+08 # SC2-SC29 type=native eps=0.191200 sigma=5.947792
pair_coeff 4 57 0.000000e+00 0.000000e+00 4.009755e+04 # SC2-CA30 type=non-native eps=0.002390 sigma=4.000000
pair_coeff 4 58 0.000000e+00 0.000000e+00 6.317440e+04 # SC2-SC30 type=non-native eps=0.002390 sigma=4.154435
pair_coeff 4 59 0.000000e+00 0.000000e+00 4.009755e+04 # SC2-CA31 type=non-native eps=0.002390 sigma=4.000000
pair_coeff 4 60 0.000000e+00 0.000000e+00 4.009755e+04 # SC2-SC31 type=non-native eps=0.002390 sigma=4.000000
pair_coeff 4 61 0.000000e+00 0.000000e+00 4.009755e+04 # SC2-CA32 type=non-native eps=0.002390 sigma=4.000000
pair_coeff 4 62 0.000000e+00 0.000000e+00 4.009755e+04 # SC2-SC32 type=non-native eps=0.002390 sigma=4.000000
pair_coeff 4 63 0.000000e+00 0.000000e+00 4.009755e+04 # SC2-CA33 type=non-native eps=0.002390 sigma=4.000000
pair_coeff 4 64 0.000000e+00 0.000000e+00 4.009755e+04 # SC2-SC33 type=non-native eps=0.002390 sigma=4.000000
pair_coeff 4 65 0.000000e+00 0.000000e+00 4.009755e+04 # SC2-CA34 type=non-native eps=0.002390 sigma=4.000000
pair_coeff 4 66 0.000000e+00 0.000000e+00 6.317440e+04 # SC2-SC34 type=non-native eps=0.002390 sigma=4.154435
pair_coeff 4 67 0.000000e+00 0.000000e+00 4.009755e+04 # SC2-CA35 type=non-native eps=0.002390 sigma=4.000000
pair_coeff 4 68 0.000000e+00 0.000000e+00 4.009755e+04 # SC2-SC35 type=non-native eps=0.002390 sigma=4.000000
pair_coeff 4 69 0.000000e+00 0.000000e+00 4.009755e+04 # SC2-CA36 type=non-native eps=0.002390 sigma=4.000000
pair_coeff 4 70 0.000000e+00 0.000000e+00 6.317440e+04 # SC2-SC36 type=non-native eps=0.002390 sigma=4.154435
pair_coeff 4 71 0.000000e+00 0.000000e+00 4.009755e+04 # SC2-CA37 type=non-native eps=0.002390 sigma=4.000000
pair_coeff 4 72 0.000000e+00 0.000000e+00 1.737309e+05 # SC2-SC37 type=non-native eps=0.002390 sigma=4.519842
pair_coeff 4 73 0.000000e+00 0.000000e+00 4.009755e+04 # SC2-CA38 type=non-native eps=0.002390 sigma=4.000000
pair_coeff 4 74 0.000000e+00 0.000000e+00 4.009755e+04 # SC2-CA39 type=non-native eps=0.002390 sigma=4.000000
pair_coeff 4 75 0.000000e+00 0.000000e+00 2.286802e+04 # SC2-SC39 type=non-native eps=0.002390 sigma=3.817121
pair_coeff 4 76 0.000000e+00 0.000000e+00 4.009755e+04 # SC2-CA40 type=non-native eps=0.002390 sigma=4.000000
pair_coeff 4 77 0.000000e+00 0.000000e+00 4.009755e+04 # SC2-SC40 type=non-native eps=0.002390 sigma=4.000000
pair_coeff 4 78 0.000000e+00 0.000000e+00 4.009755e+04 # SC2-CA41 type=non-native eps=0.002390 sigma=4.000000
pair_coeff 4 79 0.000000e+00 0.000000e+00 2.286802e+04 # SC2-SC41 type=non-native eps=0.002390 sigma=3.817121
pair_coeff 4 80 0.000000e+00 0.000000e+00 4.009755e+04 # SC2-CA42 type=non-native eps=0.002390 sigma=4.000000
pair_coeff 4 81 0.000000e+00 0.000000e+00 6.317440e+04 # SC2-SC42 type=non-native eps=0.002390 sigma=4.154435
pair_coeff 4 82 0.000000e+00 0.000000e+00 4.009755e+04 # SC2-CA43 type=non-native eps=0.002390 sigma=4.000000
pair_coeff 4 83 0.000000e+00 0.000000e+00 4.009755e+04 # SC2-SC43 type=non-native eps=0.002390 sigma=4.000000
pair_coeff 4 84 0.000000e+00 0.000000e+00 4.009755e+04 # SC2-CA44 type=non-native eps=0.002390 sigma=4.000000
pair_coeff 4 85 0.000000e+00 0.000000e+00 4.009755e+04 # SC2-SC44 type=non-native eps=0.002390 sigma=4.000000
pair_coeff 4 86 0.000000e+00 0.000000e+00 4.009755e+04 # SC2-CA45 type=non-native eps=0.002390 sigma=4.000000
pair_coeff 4 87 0.000000e+00 0.000000e+00 6.317440e+04 # SC2-SC45 type=non-native eps=0.002390 sigma=4.154435
pair_coeff 4 88 0.000000e+00 0.000000e+00 4.009755e+04 # SC2-CA46 type=non-native eps=0.002390 sigma=4.000000
pair_coeff 4 89 0.000000e+00 0.000000e+00 4.009755e+04 # SC2-SC46 type=non-native eps=0.002390 sigma=4.000000
pair_coeff 4 90 0.000000e+00 0.000000e+00 4.009755e+04 # SC2-CA47 type=non-native eps=0.002390 sigma=4.000000
pair_coeff 4 91 0.000000e+00 0.000000e+00 4.009755e+04 # SC2-SC47 type=non-native eps=0.002390 sigma=4.000000
pair_coeff 4 92 0.000000e+00 0.000000e+00 4.009755e+04 # SC2-CA48 type=non-native eps=0.002390 sigma=4.000000
pair_coeff 4 93 0.000000e+00 0.000000e+00 6.317440e+04 # SC2-SC48 type=non-native eps=0.002390 sigma=4.154435
pair_coeff 4 94 0.000000e+00 0.000000e+00 4.009755e+04 # SC2-CA49 type=non-native eps=0.002390 sigma=4.000000
pair_coeff 4 95 0.000000e+00 0.000000e+00 2.286802e+04 # SC2-SC49 type=non-native eps=0.002390 sigma=3.817121
pair_coeff 4 96 0.000000e+00 0.000000e+00 4.009755e+04 # SC2-CA50 type=non-native eps=0.002390 sigma=4.000000
pair_coeff 4 97 0.000000e+00 0.000000e+00 1.085818e+04 # SC2-SC50 type=non-native eps=0.002390 sigma=3.587401
pair_coeff 4 98 0.000000e+00 0.000000e+00 4.009755e+04 # SC2-CA51 type=non-native eps=0.002390 sigma=4.000000
pair_coeff 4 99 0.000000e+00 0.000000e+00 6.317440e+04 # SC2-SC51 type=non-native eps=0.002390 sigma=4.154435
pair_coeff 4 100 0.000000e+00 0.000000e+00 4.009755e+04 # SC2-CA52 type=non-native eps=0.002390 sigma=4.000000
pair_coeff 4 101 0.000000e+00 0.000000e+00 4.009755e+04 # SC2-SC52 type=non-native eps=0.002390 sigma=4.000000
pair_coeff 4 102 0.000000e+00 0.000000e+00 4.009755e+04 # SC2-CA53 type=non-native eps=0.002390 sigma=4.000000
pair_coeff 4 103 0.000000e+00 0.000000e+00 6.317440e+04 # SC2-SC53 type=non-native eps=0.002390 sigma=4.154435
pair_coeff 4 104 0.000000e+00 0.000000e+00 4.009755e+04 # SC2-CA54 type=non-native eps=0.002390 sigma=4.000000
pair_coeff 4 105 0.000000e+00 0.000000e+00 1.293687e+05 # SC2-SC54 type=non-native eps=0.002390 sigma=4.410142
pair_coeff 4 106 0.000000e+00 0.000000e+00 4.009755e+04 # SC2-CA55 type=non-native eps=0.002390 sigma=4.000000
pair_coeff 4 107 0.000000e+00 0.000000e+00 1.293687e+05 # SC2-SC55 type=non-native eps=0.002390 sigma=4.410142
pair_coeff 4 108 0.000000e+00 0.000000e+00 4.009755e+04 # SC2-CA56 type=non-native eps=0.002390 sigma=4.000000
pair_coeff 4 109 -4.751890e+03 0.000000e+00 3.936621e+07 # SC2-SC56 type=native eps=0.143400 sigma=5.049107
pair_coeff 4 110 0.000000e+00 0.000000e+00 4.009755e+04 # SC2-CA57 type=non-native eps=0.002390 sigma=4.000000
pair_coeff 4 111 0.000000e+00 0.000000e+00 1.737309e+05 # SC2-SC57 type=non-native eps=0.002390 sigma=4.519842
pair_coeff 4 112 0.000000e+00 0.000000e+00 4.009755e+04 # SC2-CA58 type=non-native eps=0.002390 sigma=4.000000
pair_coeff 4 113 0.000000e+00 0.000000e+00 2.286802e+04 # SC2-SC58 type=non-native eps=0.002390 sigma=3.817121
pair_coeff 4 114 0.000000e+00 0.000000e+00 4.009755e+04 # SC2-CA59 type=non-native eps=0.002390 sigma=4.000000
pair_coeff 4 115 0.000000e+00 0.000000e+00 1.085818e+04 # SC2-SC59 type=non-native eps=0.002390 sigma=3.587401
pair_coeff 4 116 0.000000e+00 0.000000e+00 4.009755e+04 # SC2-CA60 type=non-native eps=0.002390 sigma=4.000000
pair_coeff 4 117 0.000000e+00 0.000000e+00 2.286802e+04 # SC2-SC60 type=non-native eps=0.002390 sigma=3.817121
pair_coeff 4 118 0.000000e+00 0.000000e+00 4.009755e+04 # SC2-CA61 type=non-native eps=0.002390 sigma=4.000000
pair_coeff 4 119 0.000000e+00 0.000000e+00 4.009755e+04 # SC2-SC61 type=non-native eps=0.002390 sigma=4.000000
pair_coeff 4 120 0.000000e+00 0.000000e+00 4.009755e+04 # SC2-CA62 type=non-native eps=0.002390 sigma=4.000000
pair_coeff 4 121 0.000000e+00 0.000000e+00 3.442571e+03 # SC2-SC62 type=non-native eps=0.002390 sigma=3.259921
pair_coeff 4 122 0.000000e+00 0.000000e+00 4.009755e+04 # SC2-CA63 type=non-native eps=0.002390 sigma=4.000000
pair_coeff 4 123 0.000000e+00 0.000000e+00 4.009755e+04 # SC2-CA64 type=non-native eps=0.002390 sigma=4.000000
pair_coeff 4 124 0.000000e+00 0.000000e+00 4.009755e+04 # SC2-SC64 type=non-native eps=0.002390 sigma=4.000000
pair_coeff 4 125 0.000000e+00 0.000000e+00 4.009755e+04 # SC2-CA65 type=non-native eps=0.002390 sigma=4.000000
pair_coeff 4 126 0.000000e+00 0.000000e+00 4.009755e+04 # SC2-CA66 type=non-native eps=0.002390 sigma=4.000000
pair_coeff 4 127 0.000000e+00 0.000000e+00 6.317440e+04 # SC2-SC66 type=non-native eps=0.002390 sigma=4.154435
pair_coeff 4 128 0.000000e+00 0.000000e+00 4.009755e+04 # SC2-CA67 type=non-native eps=0.002390 sigma=4.000000
pair_coeff 4 129 0.000000e+00 0.000000e+00 6.317440e+04 # SC2-SC67 type=non-native eps=0.002390 sigma=4.154435
pair_coeff 4 130 0.000000e+00 0.000000e+00 4.009755e+04 # SC2-CA68 type=non-native eps=0.002390 sigma=4.000000
pair_coeff 4 131 0.000000e+00 0.000000e+00 1.085818e+04 # SC2-SC68 type=non-native eps=0.002390 sigma=3.587401
pair_coeff 4 132 0.000000e+00 0.000000e+00 4.009755e+04 # SC2-CA69 type=non-native eps=0.002390 sigma=4.000000
pair_coeff 4 133 0.000000e+00 0.000000e+00 6.317440e+04 # SC2-SC69 type=non-native eps=0.002390 sigma=4.154435
pair_coeff 4 134 0.000000e+00 0.000000e+00 4.009755e+04 # SC2-CA70 type=non-native eps=0.002390 sigma=4.000000
pair_coeff 4 135 0.000000e+00 0.000000e+00 1.293687e+05 # SC2-SC70 type=non-native eps=0.002390 sigma=4.410142
pair_coeff 4 136 0.000000e+00 0.000000e+00 4.009755e+04 # SC2-CA71 type=non-native eps=0.002390 sigma=4.000000
pair_coeff 4 137 0.000000e+00 0.000000e+00 6.317440e+04 # SC2-SC71 type=non-native eps=0.002390 sigma=4.154435
pair_coeff 4 138 -3.561608e+04 0.000000e+00 3.980664e+09 # SC2-CA72 type=native eps=0.079667 sigma=7.790343
pair_coeff 4 139 -2.680973e+04 0.000000e+00 1.127764e+09 # SC2-SC72 type=native eps=0.159333 sigma=6.619512
pair_coeff 4 140 -1.548521e+05 0.000000e+00 2.508282e+10 # SC2-CA73 type=native eps=0.239000 sigma=8.287335
pair_coeff 4 141 0.000000e+00 0.000000e+00 1.293687e+05 # SC2-SC73 type=non-native eps=0.002390 sigma=4.410142
pair_coeff 4 142 -2.493657e+03 0.000000e+00 3.252261e+07 # SC2-CA74 type=native eps=0.047800 sigma=5.445818
pair_coeff 4 143 -7.943021e+03 0.000000e+00 1.649885e+08 # SC2-SC74 type=native eps=0.095600 sigma=5.885043
pair_coeff 4 144 -8.751311e+03 0.000000e+00 3.204412e+08 # SC2-CA75 type=native eps=0.059750 sigma=6.468211
pair_coeff 4 145 -1.563284e+04 0.000000e+00 1.022534e+09 # SC2-SC75 type=native eps=0.059750 sigma=7.124892
pair_coeff 4 146 0.000000e+00 0.000000e+00 4.009755e+04 # SC2-CA76 type=non-native eps=0.002390 sigma=4.000000
pair_coeff 4 147 0.000000e+00 0.000000e+00 2.286802e+04 # SC2-SC76 type=non-native eps=0.002390 sigma=3.817121
pair_coeff 4 148 0.000000e+00 0.000000e+00 4.009755e+04 # SC2-CA77 type=non-native eps=0.002390 sigma=4.000000
pair_coeff 4 149 0.000000e+00 0.000000e+00 4.009755e+04 # SC2-SC77 type=non-native eps=0.002390 sigma=4.000000
pair_coeff 4 150 0.000000e+00 0.000000e+00 4.009755e+04 # SC2-CA78 type=non-native eps=0.002390 sigma=4.000000
pair_coeff 4 151 0.000000e+00 0.000000e+00 2.286802e+04 # SC2-SC78 type=non-native eps=0.002390 sigma=3.817121
pair_coeff 4 152 0.000000e+00 0.000000e+00 4.009755e+04 # SC2-CA79 type=non-native eps=0.002390 sigma=4.000000
pair_coeff 4 153 0.000000e+00 0.000000e+00 2.286802e+04 # SC2-SC79 type=non-native eps=0.002390 sigma=3.817121
pair_coeff 4 154 0.000000e+00 0.000000e+00 4.009755e+04 # SC2-CA80 type=non-native eps=0.002390 sigma=4.000000
pair_coeff 4 155 0.000000e+00 0.000000e+00 6.317440e+04 # SC2-SC80 type=non-native eps=0.002390 sigma=4.154435
pair_coeff 4 156 0.000000e+00 0.000000e+00 4.009755e+04 # SC2-CA81 type=non-native eps=0.002390 sigma=4.000000
pair_coeff 4 157 0.000000e+00 0.000000e+00 4.009755e+04 # SC2-SC81 type=non-native eps=0.002390 sigma=4.000000
pair_coeff 4 158 0.000000e+00 0.000000e+00 4.009755e+04 # SC2-CA82 type=non-native eps=0.002390 sigma=4.000000
pair_coeff 4 159 0.000000e+00 0.000000e+00 2.286802e+04 # SC2-SC82 type=non-native eps=0.002390 sigma=3.817121
pair_coeff 4 160 0.000000e+00 0.000000e+00 4.009755e+04 # SC2-CA83 type=non-native eps=0.002390 sigma=4.000000
pair_coeff 4 161 0.000000e+00 0.000000e+00 4.009755e+04 # SC2-CA84 type=non-native eps=0.002390 sigma=4.000000
[...]
 4788000     152.4097    70.705813   -12.446869    27.854021    31.009191     24.28947 
 4789000    152.52828    68.924209   -11.396041    23.619356    31.743809    24.957086 
 4790000    157.15747    73.211566   -11.063309    27.997316    30.593865    25.683694 
 4791000    143.27216     76.94773   -9.2959107    31.299721     30.15863     24.78529 
 4792000    150.14557     75.87731    -10.77193    28.124114    32.766141    25.758984 
 4793000    146.26595    79.086771   -10.563449    33.247766    30.252936    26.149518 
 4794000    153.96852    76.424676   -11.239984    25.226962     34.23708    28.200619 
 4795000      134.943    81.047621   -9.5193317    29.925365    32.348563    28.293026 
 4796000    127.82898    75.621123   -9.2213161    23.202917     32.10286    29.536661 
 4797000    143.11193    73.792013   -10.286642    24.760545    30.011309    29.306801 
 4798000    139.45926    73.427653   -10.069007    26.557499    28.498333    28.440827 
 4799000    142.33379    75.349682    -11.17585    27.062434    31.398486    28.064612 
 4800000    141.14031    78.199879   -9.4834436    29.103628    29.800834    28.778861 
 4801000    137.95946    77.261973   -10.993587    26.748017    33.084549    28.422993 
 4802000    134.65709    73.647728   -12.582526     29.43943    30.902061    25.888762 
 4803000    143.27457    74.946486   -12.315109    30.126309    31.814623    25.320663 
 4804000    137.14493    66.824554   -10.552264    25.849503     27.94926    23.578055 
 4805000    129.53468    68.394867   -10.573599    25.158034    29.794921    24.015511 
 4806000    140.64403    68.926692   -9.0081624    24.530275    31.472128    21.932452 
 4807000    133.88005    73.701723   -10.983945    24.953517    32.836028    26.896124 
 4808000    139.94097     61.17964   -12.722693    22.126324    26.916818    24.859191 
 4809000    132.86681    65.143457   -11.665979    21.596363    29.737233     25.47584 
 4810000    132.25819     59.73356   -11.901977    18.846784    27.582196    25.206557 
 4811000    129.62304    68.712296   -10.490116    22.373164    31.484104    25.345144 
 4812000    131.81298    73.825848   -10.826669    25.441179    32.817465    26.393874 
 4813000    122.78513    86.549208   -10.422286    29.489386    39.645473    27.836636 
 4814000    132.60403    79.396442   -10.963695    27.872481    33.284016     29.20364 
 4815000    132.39627    77.262809   -10.596692    26.199227    34.035649    27.624625 
 4816000    126.58399    82.257697   -11.012478    30.142238    34.013725    29.114212 
 4817000    155.27389    77.438122   -8.1209457    23.939111    34.805652    26.814304 
 4818000    148.57887     75.96213    -9.812862    24.971316    32.162844    28.640831 
 4819000    157.74744    77.877225   -10.378406     24.49114    35.450481     28.31401 
 4820000    136.93262    81.906809   -9.0640966    27.280068    34.345527    29.345311 
 4821000    155.31425    76.179209   -9.3661015    21.743441    37.616831    26.185038 
 4822000    155.43384    70.864075   -9.7933179    21.898081    29.944554    28.814759 
 4823000    142.55534    68.648828   -9.5863236    20.170315    29.677206     28.38763 
 4824000    139.10183    72.513925   -10.408888    24.587392    32.532033    25.803387 
 4825000    136.44852    77.216236   -11.013191    28.468799    34.857926    24.902702 
 4826000    143.42851    72.592697   -10.811937    26.491954     29.68541     27.22727 
 4827000    139.01623    72.017889   -11.810497    25.444354    31.157733    27.226299 
 4828000    147.27656    65.829555   -12.111885    24.477633    27.903252    25.560554 
 4829000    146.15564    70.653386    -11.51698    23.531031    30.372166    28.267169 
 4830000    133.25915    69.892015   -13.659476    23.869132    33.634899     26.04746 
 4831000     136.3452    69.794208   -13.573611    22.371629    34.129949    26.866241 
 4832000    146.44804    70.146623   -12.456527     23.34662    30.842899     28.41363 
 4833000    148.26796    78.979514   -13.304139     29.46595    36.718819    26.098883 
 4834000    137.72516    78.736863   -14.820251    26.093499     38.86972    28.593895 
 4835000    147.90653    67.089145   -11.995184    21.967244    30.501206    26.615879 
 4836000    133.47085    77.722238    -9.911078    25.661948    30.402254    31.569113 
 4837000     140.9038    72.486676   -12.460665    23.952165    33.681803    27.313372 
 4838000    127.91318    78.603725   -14.003037     33.17103    33.652238    25.783494 
 4839000    144.77712    66.637828   -15.776074    28.317347    28.738156    25.358399 
 4840000    151.56213    66.243109   -14.879993     25.61317    27.882717    27.627214 
 4841000    153.78764    70.825551   -13.759329    26.312484    33.893997    24.378398 
 4842000    148.43127    73.521918   -12.643177    25.891441    34.661902    25.611752 
 4843000    140.13979     76.37509   -14.046316    28.521907    35.426607    26.472893 
 4844000    139.18829    74.108107   -13.421544    28.442537    32.224604     26.86251 
 4845000    146.38456    70.144137   -12.501655    25.058781    35.012308    22.574704 
 4846000     154.4441    64.465065   -11.454987    25.192092    29.655255    21.072704 
 4847000    146.90656     76.49683   -10.382229    30.527636    31.660184    24.691238 
 4848000    147.91835    75.275275   -12.838937    26.341339    37.748105    24.024768 
 4849000    157.74161    63.373886    -14.29873    23.634695      32.5183     21.51962 
 4850000    135.95431    69.054054   -11.058237     27.28797    28.611422    24.212898 
 4851000    146.16291    62.192594   -12.698561    23.152339    29.842148    21.896668 
 4852000    147.15908    60.428856   -13.121709    19.191079    34.839401    19.520085 
 4853000     148.2515      65.1001   -14.953767    24.553225    30.649286    24.851357 
 4854000    140.89413    71.961795    -14.71958    26.113833    37.072998    23.494544 
 4855000    141.32871    66.641486   -15.409227    24.173734    33.978152    23.898826 
 4856000    153.71508    66.440571    -14.20193    25.984724    31.087523    23.570255 
 4857000    153.51828    72.931735   -10.602711    25.648111    32.548488    25.337847 
 4858000    134.22215    79.937883   -9.7906233    30.502243    33.812168    25.414095 
 4859000    151.67045    76.116652    -9.631913     25.81216    33.912357    26.024049 
 4860000     139.9263    71.689099   -12.600575    26.768492    30.893544    26.627637 
 4861000    135.22567    78.237219   -11.580588    25.609175     36.99742    27.211212 
 4862000    136.46862    71.893848     -13.0151    28.905729    30.549637    25.453582 
 4863000    134.77509    76.796128    -12.14936    25.661617     37.04415    26.239721 
 4864000    143.31504    80.011748   -12.143012    26.632189    35.194861     30.32771 
 4865000     146.2336    69.093112   -11.240084    25.043115    26.646158    28.643922 
 4866000    138.84518     67.14733   -11.240583    23.253368    28.851666    26.282879 
 4867000    137.66318    71.678917   -13.432389    28.103052    29.791383     27.21687 
 4868000    159.71653    72.652902   -14.595879    28.927077    32.176269    26.145435 
 4869000    147.78042    74.018441   -15.021983    29.786855    30.919201    28.334367 
 4870000    151.18876     65.54193    -16.43878    24.573505    30.290208    27.116996 
 4871000    139.67672    70.820534   -15.944464    23.796703    34.770351    28.197945 
 4872000    131.14221    69.072807   -16.618451    27.831082    31.077449    26.782727 
 4873000    140.99215    62.363853   -15.346361    29.670234    25.546606    22.493375 
 4874000    127.33263    66.253469   -16.795047    31.663466     29.67311     21.71194 
 4875000    143.75444    55.434578   -18.249561    25.553367    25.275483    22.855289 
 4876000    139.89102    61.820618   -15.653503    24.358691    31.510722    21.604708 
 4877000    137.78429    60.513755   -17.883412    27.650451     29.42837    21.318347 
 4878000    158.93512    61.300898   -18.014353    31.275007    28.355145    19.685098 
 4879000     144.3805    74.954744   -17.031972    32.229818    37.479404    22.277494 
 4880000    137.15409    75.231747   -14.788315    30.296263    35.096728    24.627071 
 4881000    149.11989    63.336772   -15.437218    28.289604    28.066477    22.417909 
 4882000    130.04222    64.933212    -13.93967    25.186095    31.608891    22.077896 
 4883000    137.52851    59.354588    -16.43086     27.66609    25.753755    22.365602 
 4884000    139.77184    66.539137    -16.04815    21.565172    35.082383    25.939732 
 4885000    140.78689    67.060059   -13.075575    25.057121    32.229067    22.849446 
 4886000    152.64691    67.486339   -13.026832    27.609798    29.414487    23.488886 
 4887000    158.38154    67.395179   -12.709914    30.317339    26.965833     22.82192 
 4888000      135.205    77.879543   -12.065743    27.947101    36.565457    25.432729 
 4889000    153.80054    76.953592   -13.019482    27.446708    36.512685    26.013681 
 4890000    139.15185    71.453408     -12.5481    26.368712    33.273619    24.359177 
 4891000    131.82997    67.850183   -10.790914    27.136521    27.176471    24.328104 
 4892000    149.12397     67.07106   -10.130513    23.221227    29.132201    24.848145 
 4893000    133.35094    78.122984   -10.200746     27.87986    33.868344    26.575527 
 4894000    144.81257    71.882334    -11.43588     21.34344    34.822689    27.152085 
 4895000    133.31636    71.602349   -10.994394    25.381398    28.839564     28.37578 
 4896000    124.97655    66.202278   -9.6757061    24.816842    25.682367    25.378775 
 4897000    148.32162    68.978789   -12.093027    25.207957    29.548305    26.315555 
 4898000    147.83886    71.872022    -11.64026    26.272323    30.777715    26.462244 
 4899000    147.34239    71.484322   -9.6596508    24.426016    29.000511    27.717446 
 4900000    140.27741     81.23969   -8.7011561     27.69321    35.106977    27.140659 
 4901000    146.88673    72.112616   -10.167582    23.408746    32.439083     26.43237 
 4902000     135.6076    78.321962   -11.792103     27.16162    36.771379    26.181066 
 4903000    131.66359    77.089021   -8.4131123     25.55088     34.00055    25.950704 
 4904000    134.92316    80.051453   -7.6294647    28.718689    34.168272    24.793956 
 4905000    143.63351    77.669651   -9.2783113    25.551652    34.718927    26.677384 
 4906000    138.30837    80.133392   -7.5358177     26.34956    34.683463    26.636187 
 4907000    139.69621    70.395868   -8.7981938    22.919156    35.487764    20.787143 
 4908000    137.49466    71.744867    -8.878757    23.174746    34.849111    22.599766 
 4909000    147.92452    66.852305   -11.332514    25.396461     30.85175    21.936607 
 4910000    136.11128    64.797336   -9.6611566     23.19722    28.812473      22.4488 
 4911000    141.34404    64.187947   -10.351375    25.995751    26.170186    22.373384 
 4912000    137.14683    67.700697   -13.360533    29.306148    26.890692    24.864391 
 4913000    123.56497    72.620355   -11.959839    25.725459    32.729727    26.125008 
 4914000    140.52881    68.935454   -10.159425    22.880982    29.274262    26.939634 
 4915000    130.51799    69.778456   -9.5039001    25.205623     30.90262    23.174114 
 4916000    136.62016    64.178221   -10.470556    21.863172    28.025284     24.76032 
 4917000    132.49439    66.888424   -11.649758    25.581732    30.357986    22.598464 
 4918000    151.84524    64.896694   -10.311469    26.037925    28.781455    20.388782 
 4919000    144.18661    73.118745   -9.6890906    25.949926    32.289149    24.568761 
 4920000    149.74141    71.023481    -9.213735    23.903411    30.296618    26.037187 
 4921000    145.19518    71.054599    -11.85272    28.896039    31.058442    22.952838 
 4922000    139.48386    67.556818   -12.231302    27.368531    29.198644    23.220945 
 4923000    138.52435    69.598432   -11.747199    25.661258    33.352751    22.331622 
 4924000    140.21764     71.65447   -11.078072    23.557382     33.87554     25.29962 
 4925000    137.32723    74.769685   -9.8772953    26.650418    31.946678    26.049885 
 4926000    143.37216    73.170751   -10.542973    24.757101    31.696466    27.260157 
 4927000    135.49731    67.898267   -12.026698     25.17655     32.06787    22.680546 
 4928000    135.74955     67.10453   -10.713575    23.736337    29.768125    24.313643 
 4929000    139.90692     68.09398   -12.716601    25.942943     29.02217    25.845467 
 4930000    137.66457    71.127644   -11.392067    22.933154    33.476658    26.109899 
 4931000    137.86476    72.813841   -10.236322    26.081962    31.569335    25.398865 
 4932000     141.3944    72.039373   -10.032132    22.899393    31.872679    27.299434 
 4933000    134.73724    73.646252   -10.186923    23.323926     32.64769    27.861559 
 4934000    128.13505    76.819947    -9.105309    26.970783     31.19579    27.758683 
 4935000    128.47021    80.221169   -7.5360012    29.319617    29.646891    28.790663 
 4936000    140.32496    81.569467   -7.2767384    24.966972    36.234546    27.644688 
 4937000    160.02594    78.071976   -9.8402481    27.489925    32.512342    27.909956 
 4938000    146.27306    79.300626   -8.1434183    29.412237    25.814423    32.217384 
 4939000    145.85786      75.4977   -9.1886063    26.913182    26.408329    31.364796 
 4940000     153.5159    75.984582   -8.4986572    25.428494    28.975132    30.079614 
 4941000     137.3308    85.738561   -9.7262168    24.959675     37.74529    32.759814 
 4942000    155.84226    79.271188   -8.4157729    23.586502    32.497452    31.603007 
 4943000    144.56385    79.443426   -7.4632577    26.052954    32.712438    28.141292 
 4944000    142.19103    80.068045    -8.200501    27.258776    29.339294    31.670476 
 4945000    147.08997    75.904061   -7.3708267    26.397432    27.588079    29.289376 
 4946000     149.9192    77.290499   -8.4966558    27.512944    29.707675    28.566536 
 4947000    141.68593    77.999823   -7.6620537    25.415588    29.870019     30.37627 
 4948000    151.16632    83.405504   -6.3902156    25.034417    34.662342     30.09896 
 4949000    145.68828    87.378723   -6.0358014    30.886937    30.307944    32.219643 
 4950000    143.32708    90.405285   -6.6677575    27.952666     37.72153    31.398847 
 4951000    138.17966    87.066655   -9.5551183    32.390997    35.475789    28.754987 
 4952000    151.35544     88.37863   -7.5117582    26.993398    37.474789    31.422202 
 4953000    148.82551    91.304619   -7.8629175    31.496581    37.967171    29.703784 
 4954000    149.57576    93.050847   -5.7172909     31.55495    37.584845    29.628343 
 4955000    134.41835    96.666817   -5.6357675    32.758732    36.963214    32.580638 
 4956000     159.4223    90.273104    -5.167833    27.402399    36.296415    31.742124 
 4957000    153.65004    89.678335   -6.2995798    30.398371    35.334187    30.245357 
 4958000    155.18159     82.80516    -5.463687    25.130942    29.020281    34.117624 
 4959000    139.63135    89.589421    -5.044666    26.009765    36.059486    32.564835 
 4960000    146.14776    86.669955   -5.5893543    24.843121    32.445584    34.970604 
 4961000     160.9348    96.340726   -5.2303184     26.00804    41.891004       33.672 
 4962000    152.33297    85.761897   -7.1968926    25.042954    34.845563    33.070274 
 4963000    141.06937    83.597563   -7.2249683    23.076447    34.984293    32.761791 
 4964000    133.72052    86.475142   -6.7002743    23.770036     33.91335     35.49203 
 4965000    141.74478    79.019127   -6.9038438    25.470254    29.864057     30.58866 
 4966000    136.27201    82.481208   -6.6096435    23.713128    34.593238    30.784486 
 4967000    140.31209      80.5186   -7.1411453    26.447379    29.998161    31.214206 
 4968000    146.84264    76.593355   -7.6348753    24.813528    30.022911    29.391792 
 4969000    145.98931    76.653555   -8.2147494    27.295985     30.47337     27.09895 
 4970000    141.16421    77.574129   -8.2259409    26.428686    32.784479    26.586905 
 4971000    142.29369     76.74302   -8.8856339    25.019705    33.558588     27.05036 
 4972000     143.6409     76.49208   -7.0399741    26.499872     29.58268    27.449502 
 4973000    141.78685    77.569669   -9.5076705    26.706668    33.848714    26.521958 
 4974000    143.63597    69.974482   -8.4536193    26.445493    27.349885    24.632723 
 4975000    140.74745    69.184737   -10.008063    23.562747    30.490558    25.139495 
 4976000    135.76869    73.435351   -11.378531    25.927521    34.606787    24.279575 
 4977000    145.20349    70.848991   -9.9047315    25.027494    30.777942    24.948286 
 4978000    135.76474    63.215845   -10.003986    24.007312     26.37884    22.833679 
 4979000    133.25294    70.135132   -10.395893    28.908339    29.251651    22.371035 
 4980000    122.86231    68.803496   -11.930756    26.968223    30.939139    22.826891 
 4981000    133.52831    64.268749   -10.456262    24.449679    28.104206    22.171125 
 4982000    134.95928    64.518322   -11.589555    24.440885    29.529017    22.137975 
 4983000    145.57747    58.049972   -13.051512    21.991663    26.224525    22.885296 
 4984000    136.41807    62.759523   -13.912407    26.676369    28.574367    21.421193 
 4985000    134.09328     68.98988   -12.347953    26.896419    28.163076    26.278337 
 4986000     156.6404    67.098948   -13.061719    28.087829    29.016059    23.056779 
 4987000    157.72231    61.556949    -13.72157    24.971186    29.354789    20.952544 
 4988000    144.08877    66.466066   -13.208495    24.907743    29.694168    25.072651 
 4989000    148.57763    72.421787   -10.454865    25.343664    33.548033    23.984954 
 4990000    146.58201    77.476769   -10.466872    27.577269    34.660086    25.706286 
 4991000    122.40489    84.189146   -11.441216    27.325744    41.079668    27.224951 
 4992000     147.0582    67.733151   -9.7768719    22.258915    29.909808      25.3413 
 4993000    138.69408    70.884078   -10.903193    28.568875    28.804892    24.413504 
 4994000    148.34213    70.953697   -10.318531    22.675717    33.670059    24.926452 
 4995000    145.51695    71.333537    -8.235194    25.727397    30.671769    23.169565 
 4996000    143.14812    68.464716   -10.369521     24.33836    31.498003    22.997874 
 4997000    136.00903     72.72915   -8.8977993    27.012278    31.127155    23.487516 
 4998000    145.96288    75.174049   -7.9041652    23.598252    33.817629    25.662333 
 4999000    133.13365    85.515228   -8.0598932    30.545452    33.257806    29.771863 
 5000000     129.6036    87.820676   -7.8885119    33.825485    33.891258    27.992445 
Loop time of 489.44 on 4 procs for 5000000 steps with 185 atoms

Performance: 441.320 ns/day, 0.054 hours/ns, 10215.750 timesteps/s
99.6% CPU use with 4 MPI tasks x no OpenMP threads

MPI task timing breakdown:
Section |  min time  |  avg time  |  max time  |%varavg| %total
---------------------------------------------------------------
Pair    | 189.85     | 202.49     | 220.42     |  90.2 | 41.37
Bond    | 79.71      | 85.682     | 95.575     |  67.9 | 17.51
Neigh   | 3.5489     | 3.5657     | 3.5811     |   0.6 |  0.73
Comm    | 133.38     | 161.88     | 179.89     | 144.6 | 33.07
Output  | 0.27542    | 0.35106    | 0.56856    |  21.2 |  0.07
Modify  | 26.242     | 29.392     | 32.357     |  40.1 |  6.01
Other   |            | 6.081      |            |       |  1.24

Nlocal:    46.25 ave 53 max 38 min
Histogram: 1 0 1 0 0 0 0 0 0 2
Nghost:    138.75 ave 147 max 132 min
Histogram: 2 0 0 0 0 0 0 1 0 1
Neighs:    1976 ave 2228 max 1644 min
Histogram: 1 0 0 1 0 0 0 0 0 2

Total # of neighbors = 7904
Ave neighs/atom = 42.7243
Ave special neighs/atom = 8.04324
Neighbor list builds = 29677
Dangerous builds = 0
clear

next t
next a
jump SELF loopstart
# set logfile
log		log.run.$t
log		log.run.145
