
# Box and units  (use LJ units and periodic boundaries)
units		real
# so:
#    mass = grams/mole		# same in gromacs
#    distance = Angstroms	# nm in gromacs
#    time = femtoseconds	# ps in gromacs
#    energy = Kcal/mole		# kcal/mol in gromacs
#    velocity = Angstroms/femtosecond	# ...
#    force = Kcal/mole-Angstrom	# ...
#    temperature = Kelvin	# same in gromacs
#    pressure = atmospheres	# same in gromacs
#    dynamic viscosity = Poise	# no idea
dimension	3
atom_style	molecular
boundary	p p p


# Pair interactions require lists of neighbours to be calculated
neighbor	5.0 nsq
neigh_modify	every 1 delay 10 check yes

# define interactions
pair_style	lj12106/cut  30.0 # same as in md_sample.mdp from the smog-model web-tool
pair_modify	shift yes
bond_style	harmonic
angle_style	harmonic
dihedral_style	charmm
special_bonds	lj 0.0 0.0 0.0 angle yes dihedral yes # 3 exclusions

# READ "start" data file
read_data ../../protein/ranaspumin/4-coarsegrained/data.input
  orthogonal box = (-200 -200 -200) to (200 200 200)
  1 by 2 by 2 MPI processor grid
  reading atoms ...
  185 atoms
  scanning bonds ...
  2 = max bonds/atom
  scanning angles ...
  3 = max angles/atom
  scanning dihedrals ...
  8 = max dihedrals/atom
  reading bonds ...
  185 bonds
  reading angles ...
  270 angles
  reading dihedrals ...
  578 dihedrals
  3 = max # of 1-2 neighbors
  5 = max # of 1-3 neighbors
  10 = max # of 1-4 neighbors
  544 = # of 1-3 neighbors before angle trim
  540 = # of 1-3 neighbors after angle trim
  991 = # of 1-4 neighbors before dihedral trim
  578 = # of 1-4 neighbors after dihedral trim
  11 = max # of special neighbors

# define coeffs
include ../../protein/ranaspumin/4-coarsegrained/settings.param
pair_coeff 1 1 0.000000e+00 0.000000e+00 4.009755e+04 # CA1-CA1 type=non-native eps=0.002390 sigma=4.000000
pair_coeff 1 2 0.000000e+00 0.000000e+00 4.009755e+04 # CA1-SC1 type=non-native eps=0.002390 sigma=4.000000
pair_coeff 1 3 0.000000e+00 0.000000e+00 4.009755e+04 # CA1-CA2 type=non-native eps=0.002390 sigma=4.000000
pair_coeff 1 4 0.000000e+00 0.000000e+00 4.009755e+04 # CA1-SC2 type=non-native eps=0.002390 sigma=4.000000
pair_coeff 1 5 0.000000e+00 0.000000e+00 4.009755e+04 # CA1-CA3 type=non-native eps=0.002390 sigma=4.000000
pair_coeff 1 6 0.000000e+00 0.000000e+00 4.009755e+04 # CA1-SC3 type=non-native eps=0.002390 sigma=4.000000
pair_coeff 1 7 0.000000e+00 0.000000e+00 4.009755e+04 # CA1-CA4 type=non-native eps=0.002390 sigma=4.000000
pair_coeff 1 8 0.000000e+00 0.000000e+00 4.009755e+04 # CA1-SC4 type=non-native eps=0.002390 sigma=4.000000
pair_coeff 1 9 0.000000e+00 0.000000e+00 4.009755e+04 # CA1-CA5 type=non-native eps=0.002390 sigma=4.000000
pair_coeff 1 10 0.000000e+00 0.000000e+00 4.009755e+04 # CA1-CA6 type=non-native eps=0.002390 sigma=4.000000
pair_coeff 1 11 0.000000e+00 0.000000e+00 4.009755e+04 # CA1-SC6 type=non-native eps=0.002390 sigma=4.000000
pair_coeff 1 12 0.000000e+00 0.000000e+00 4.009755e+04 # CA1-CA7 type=non-native eps=0.002390 sigma=4.000000
pair_coeff 1 13 0.000000e+00 0.000000e+00 4.009755e+04 # CA1-SC7 type=non-native eps=0.002390 sigma=4.000000
pair_coeff 1 14 0.000000e+00 0.000000e+00 4.009755e+04 # CA1-CA8 type=non-native eps=0.002390 sigma=4.000000
pair_coeff 1 15 0.000000e+00 0.000000e+00 4.009755e+04 # CA1-SC8 type=non-native eps=0.002390 sigma=4.000000
pair_coeff 1 16 0.000000e+00 0.000000e+00 4.009755e+04 # CA1-CA9 type=non-native eps=0.002390 sigma=4.000000
pair_coeff 1 17 0.000000e+00 0.000000e+00 6.317440e+04 # CA1-SC9 type=non-native eps=0.002390 sigma=4.154435
pair_coeff 1 18 0.000000e+00 0.000000e+00 4.009755e+04 # CA1-CA10 type=non-native eps=0.002390 sigma=4.000000
pair_coeff 1 19 0.000000e+00 0.000000e+00 4.009755e+04 # CA1-SC10 type=non-native eps=0.002390 sigma=4.000000
pair_coeff 1 20 0.000000e+00 0.000000e+00 4.009755e+04 # CA1-CA11 type=non-native eps=0.002390 sigma=4.000000
pair_coeff 1 21 0.000000e+00 0.000000e+00 6.317440e+04 # CA1-SC11 type=non-native eps=0.002390 sigma=4.154435
pair_coeff 1 22 0.000000e+00 0.000000e+00 4.009755e+04 # CA1-CA12 type=non-native eps=0.002390 sigma=4.000000
pair_coeff 1 23 0.000000e+00 0.000000e+00 4.009755e+04 # CA1-SC12 type=non-native eps=0.002390 sigma=4.000000
pair_coeff 1 24 0.000000e+00 0.000000e+00 4.009755e+04 # CA1-CA13 type=non-native eps=0.002390 sigma=4.000000
pair_coeff 1 25 0.000000e+00 0.000000e+00 6.317440e+04 # CA1-SC13 type=non-native eps=0.002390 sigma=4.154435
pair_coeff 1 26 0.000000e+00 0.000000e+00 4.009755e+04 # CA1-CA14 type=non-native eps=0.002390 sigma=4.000000
pair_coeff 1 27 0.000000e+00 0.000000e+00 4.009755e+04 # CA1-SC14 type=non-native eps=0.002390 sigma=4.000000
pair_coeff 1 28 0.000000e+00 0.000000e+00 4.009755e+04 # CA1-CA15 type=non-native eps=0.002390 sigma=4.000000
pair_coeff 1 29 0.000000e+00 0.000000e+00 2.286802e+04 # CA1-SC15 type=non-native eps=0.002390 sigma=3.817121
pair_coeff 1 30 0.000000e+00 0.000000e+00 4.009755e+04 # CA1-CA16 type=non-native eps=0.002390 sigma=4.000000
pair_coeff 1 31 0.000000e+00 0.000000e+00 2.286802e+04 # CA1-SC16 type=non-native eps=0.002390 sigma=3.817121
pair_coeff 1 32 0.000000e+00 0.000000e+00 4.009755e+04 # CA1-CA17 type=non-native eps=0.002390 sigma=4.000000
pair_coeff 1 33 0.000000e+00 0.000000e+00 4.009755e+04 # CA1-SC17 type=non-native eps=0.002390 sigma=4.000000
pair_coeff 1 34 0.000000e+00 0.000000e+00 4.009755e+04 # CA1-CA18 type=non-native eps=0.002390 sigma=4.000000
pair_coeff 1 35 0.000000e+00 0.000000e+00 4.009755e+04 # CA1-SC18 type=non-native eps=0.002390 sigma=4.000000
pair_coeff 1 36 0.000000e+00 0.000000e+00 4.009755e+04 # CA1-CA19 type=non-native eps=0.002390 sigma=4.000000
pair_coeff 1 37 0.000000e+00 0.000000e+00 4.009755e+04 # CA1-SC19 type=non-native eps=0.002390 sigma=4.000000
pair_coeff 1 38 0.000000e+00 0.000000e+00 4.009755e+04 # CA1-CA20 type=non-native eps=0.002390 sigma=4.000000
pair_coeff 1 39 0.000000e+00 0.000000e+00 4.009755e+04 # CA1-SC20 type=non-native eps=0.002390 sigma=4.000000
pair_coeff 1 40 0.000000e+00 0.000000e+00 4.009755e+04 # CA1-CA21 type=non-native eps=0.002390 sigma=4.000000
pair_coeff 1 41 0.000000e+00 0.000000e+00 1.293687e+05 # CA1-SC21 type=non-native eps=0.002390 sigma=4.410142
pair_coeff 1 42 0.000000e+00 0.000000e+00 4.009755e+04 # CA1-CA22 type=non-native eps=0.002390 sigma=4.000000
pair_coeff 1 43 0.000000e+00 0.000000e+00 4.009755e+04 # CA1-CA23 type=non-native eps=0.002390 sigma=4.000000
pair_coeff 1 44 0.000000e+00 0.000000e+00 6.317440e+04 # CA1-SC23 type=non-native eps=0.002390 sigma=4.154435
pair_coeff 1 45 0.000000e+00 0.000000e+00 4.009755e+04 # CA1-CA24 type=non-native eps=0.002390 sigma=4.000000
pair_coeff 1 46 0.000000e+00 0.000000e+00 6.317440e+04 # CA1-SC24 type=non-native eps=0.002390 sigma=4.154435
pair_coeff 1 47 0.000000e+00 0.000000e+00 4.009755e+04 # CA1-CA25 type=non-native eps=0.002390 sigma=4.000000
pair_coeff 1 48 0.000000e+00 0.000000e+00 4.009755e+04 # CA1-SC25 type=non-native eps=0.002390 sigma=4.000000
pair_coeff 1 49 0.000000e+00 0.000000e+00 4.009755e+04 # CA1-CA26 type=non-native eps=0.002390 sigma=4.000000
pair_coeff 1 50 0.000000e+00 0.000000e+00 4.009755e+04 # CA1-SC26 type=non-native eps=0.002390 sigma=4.000000
pair_coeff 1 51 0.000000e+00 0.000000e+00 4.009755e+04 # CA1-CA27 type=non-native eps=0.002390 sigma=4.000000
pair_coeff 1 52 0.000000e+00 0.000000e+00 4.009755e+04 # CA1-SC27 type=non-native eps=0.002390 sigma=4.000000
pair_coeff 1 53 0.000000e+00 0.000000e+00 4.009755e+04 # CA1-CA28 type=non-native eps=0.002390 sigma=4.000000
pair_coeff 1 54 0.000000e+00 0.000000e+00 6.317440e+04 # CA1-SC28 type=non-native eps=0.002390 sigma=4.154435
pair_coeff 1 55 0.000000e+00 0.000000e+00 4.009755e+04 # CA1-CA29 type=non-native eps=0.002390 sigma=4.000000
pair_coeff 1 56 -1.088004e+05 0.000000e+00 1.238235e+10 # CA1-SC29 type=native eps=0.239000 sigma=7.813886
pair_coeff 1 57 0.000000e+00 0.000000e+00 4.009755e+04 # CA1-CA30 type=non-native eps=0.002390 sigma=4.000000
pair_coeff 1 58 0.000000e+00 0.000000e+00 6.317440e+04 # CA1-SC30 type=non-native eps=0.002390 sigma=4.154435
pair_coeff 1 59 0.000000e+00 0.000000e+00 4.009755e+04 # CA1-CA31 type=non-native eps=0.002390 sigma=4.000000
pair_coeff 1 60 0.000000e+00 0.000000e+00 4.009755e+04 # CA1-SC31 type=non-native eps=0.002390 sigma=4.000000
pair_coeff 1 61 0.000000e+00 0.000000e+00 4.009755e+04 # CA1-CA32 type=non-native eps=0.002390 sigma=4.000000
pair_coeff 1 62 0.000000e+00 0.000000e+00 4.009755e+04 # CA1-SC32 type=non-native eps=0.002390 sigma=4.000000
pair_coeff 1 63 0.000000e+00 0.000000e+00 4.009755e+04 # CA1-CA33 type=non-native eps=0.002390 sigma=4.000000
pair_coeff 1 64 0.000000e+00 0.000000e+00 4.009755e+04 # CA1-SC33 type=non-native eps=0.002390 sigma=4.000000
pair_coeff 1 65 0.000000e+00 0.000000e+00 4.009755e+04 # CA1-CA34 type=non-native eps=0.002390 sigma=4.000000
pair_coeff 1 66 0.000000e+00 0.000000e+00 6.317440e+04 # CA1-SC34 type=non-native eps=0.002390 sigma=4.154435
pair_coeff 1 67 0.000000e+00 0.000000e+00 4.009755e+04 # CA1-CA35 type=non-native eps=0.002390 sigma=4.000000
pair_coeff 1 68 0.000000e+00 0.000000e+00 4.009755e+04 # CA1-SC35 type=non-native eps=0.002390 sigma=4.000000
pair_coeff 1 69 0.000000e+00 0.000000e+00 4.009755e+04 # CA1-CA36 type=non-native eps=0.002390 sigma=4.000000
pair_coeff 1 70 0.000000e+00 0.000000e+00 6.317440e+04 # CA1-SC36 type=non-native eps=0.002390 sigma=4.154435
pair_coeff 1 71 0.000000e+00 0.000000e+00 4.009755e+04 # CA1-CA37 type=non-native eps=0.002390 sigma=4.000000
pair_coeff 1 72 0.000000e+00 0.000000e+00 1.737309e+05 # CA1-SC37 type=non-native eps=0.002390 sigma=4.519842
pair_coeff 1 73 0.000000e+00 0.000000e+00 4.009755e+04 # CA1-CA38 type=non-native eps=0.002390 sigma=4.000000
pair_coeff 1 74 0.000000e+00 0.000000e+00 4.009755e+04 # CA1-CA39 type=non-native eps=0.002390 sigma=4.000000
pair_coeff 1 75 0.000000e+00 0.000000e+00 2.286802e+04 # CA1-SC39 type=non-native eps=0.002390 sigma=3.817121
pair_coeff 1 76 0.000000e+00 0.000000e+00 4.009755e+04 # CA1-CA40 type=non-native eps=0.002390 sigma=4.000000
pair_coeff 1 77 0.000000e+00 0.000000e+00 4.009755e+04 # CA1-SC40 type=non-native eps=0.002390 sigma=4.000000
pair_coeff 1 78 0.000000e+00 0.000000e+00 4.009755e+04 # CA1-CA41 type=non-native eps=0.002390 sigma=4.000000
pair_coeff 1 79 0.000000e+00 0.000000e+00 2.286802e+04 # CA1-SC41 type=non-native eps=0.002390 sigma=3.817121
pair_coeff 1 80 0.000000e+00 0.000000e+00 4.009755e+04 # CA1-CA42 type=non-native eps=0.002390 sigma=4.000000
pair_coeff 1 81 0.000000e+00 0.000000e+00 6.317440e+04 # CA1-SC42 type=non-native eps=0.002390 sigma=4.154435
pair_coeff 1 82 0.000000e+00 0.000000e+00 4.009755e+04 # CA1-CA43 type=non-native eps=0.002390 sigma=4.000000
pair_coeff 1 83 0.000000e+00 0.000000e+00 4.009755e+04 # CA1-SC43 type=non-native eps=0.002390 sigma=4.000000
pair_coeff 1 84 0.000000e+00 0.000000e+00 4.009755e+04 # CA1-CA44 type=non-native eps=0.002390 sigma=4.000000
pair_coeff 1 85 0.000000e+00 0.000000e+00 4.009755e+04 # CA1-SC44 type=non-native eps=0.002390 sigma=4.000000
pair_coeff 1 86 0.000000e+00 0.000000e+00 4.009755e+04 # CA1-CA45 type=non-native eps=0.002390 sigma=4.000000
pair_coeff 1 87 0.000000e+00 0.000000e+00 6.317440e+04 # CA1-SC45 type=non-native eps=0.002390 sigma=4.154435
pair_coeff 1 88 0.000000e+00 0.000000e+00 4.009755e+04 # CA1-CA46 type=non-native eps=0.002390 sigma=4.000000
pair_coeff 1 89 0.000000e+00 0.000000e+00 4.009755e+04 # CA1-SC46 type=non-native eps=0.002390 sigma=4.000000
pair_coeff 1 90 0.000000e+00 0.000000e+00 4.009755e+04 # CA1-CA47 type=non-native eps=0.002390 sigma=4.000000
pair_coeff 1 91 0.000000e+00 0.000000e+00 4.009755e+04 # CA1-SC47 type=non-native eps=0.002390 sigma=4.000000
pair_coeff 1 92 0.000000e+00 0.000000e+00 4.009755e+04 # CA1-CA48 type=non-native eps=0.002390 sigma=4.000000
pair_coeff 1 93 0.000000e+00 0.000000e+00 6.317440e+04 # CA1-SC48 type=non-native eps=0.002390 sigma=4.154435
pair_coeff 1 94 0.000000e+00 0.000000e+00 4.009755e+04 # CA1-CA49 type=non-native eps=0.002390 sigma=4.000000
pair_coeff 1 95 0.000000e+00 0.000000e+00 2.286802e+04 # CA1-SC49 type=non-native eps=0.002390 sigma=3.817121
pair_coeff 1 96 0.000000e+00 0.000000e+00 4.009755e+04 # CA1-CA50 type=non-native eps=0.002390 sigma=4.000000
pair_coeff 1 97 0.000000e+00 0.000000e+00 1.085818e+04 # CA1-SC50 type=non-native eps=0.002390 sigma=3.587401
pair_coeff 1 98 0.000000e+00 0.000000e+00 4.009755e+04 # CA1-CA51 type=non-native eps=0.002390 sigma=4.000000
pair_coeff 1 99 0.000000e+00 0.000000e+00 6.317440e+04 # CA1-SC51 type=non-native eps=0.002390 sigma=4.154435
pair_coeff 1 100 0.000000e+00 0.000000e+00 4.009755e+04 # CA1-CA52 type=non-native eps=0.002390 sigma=4.000000
pair_coeff 1 101 0.000000e+00 0.000000e+00 4.009755e+04 # CA1-SC52 type=non-native eps=0.002390 sigma=4.000000
pair_coeff 1 102 0.000000e+00 0.000000e+00 4.009755e+04 # CA1-CA53 type=non-native eps=0.002390 sigma=4.000000
pair_coeff 1 103 0.000000e+00 0.000000e+00 6.317440e+04 # CA1-SC53 type=non-native eps=0.002390 sigma=4.154435
pair_coeff 1 104 0.000000e+00 0.000000e+00 4.009755e+04 # CA1-CA54 type=non-native eps=0.002390 sigma=4.000000
pair_coeff 1 105 0.000000e+00 0.000000e+00 1.293687e+05 # CA1-SC54 type=non-native eps=0.002390 sigma=4.410142
pair_coeff 1 106 0.000000e+00 0.000000e+00 4.009755e+04 # CA1-CA55 type=non-native eps=0.002390 sigma=4.000000
pair_coeff 1 107 0.000000e+00 0.000000e+00 1.293687e+05 # CA1-SC55 type=non-native eps=0.002390 sigma=4.410142
pair_coeff 1 108 0.000000e+00 0.000000e+00 4.009755e+04 # CA1-CA56 type=non-native eps=0.002390 sigma=4.000000
pair_coeff 1 109 0.000000e+00 0.000000e+00 1.737309e+05 # CA1-SC56 type=non-native eps=0.002390 sigma=4.519842
pair_coeff 1 110 0.000000e+00 0.000000e+00 4.009755e+04 # CA1-CA57 type=non-native eps=0.002390 sigma=4.000000
pair_coeff 1 111 0.000000e+00 0.000000e+00 1.737309e+05 # CA1-SC57 type=non-native eps=0.002390 sigma=4.519842
pair_coeff 1 112 0.000000e+00 0.000000e+00 4.009755e+04 # CA1-CA58 type=non-native eps=0.002390 sigma=4.000000
pair_coeff 1 113 0.000000e+00 0.000000e+00 2.286802e+04 # CA1-SC58 type=non-native eps=0.002390 sigma=3.817121
pair_coeff 1 114 0.000000e+00 0.000000e+00 4.009755e+04 # CA1-CA59 type=non-native eps=0.002390 sigma=4.000000
pair_coeff 1 115 0.000000e+00 0.000000e+00 1.085818e+04 # CA1-SC59 type=non-native eps=0.002390 sigma=3.587401
pair_coeff 1 116 0.000000e+00 0.000000e+00 4.009755e+04 # CA1-CA60 type=non-native eps=0.002390 sigma=4.000000
pair_coeff 1 117 0.000000e+00 0.000000e+00 2.286802e+04 # CA1-SC60 type=non-native eps=0.002390 sigma=3.817121
pair_coeff 1 118 0.000000e+00 0.000000e+00 4.009755e+04 # CA1-CA61 type=non-native eps=0.002390 sigma=4.000000
pair_coeff 1 119 0.000000e+00 0.000000e+00 4.009755e+04 # CA1-SC61 type=non-native eps=0.002390 sigma=4.000000
pair_coeff 1 120 0.000000e+00 0.000000e+00 4.009755e+04 # CA1-CA62 type=non-native eps=0.002390 sigma=4.000000
pair_coeff 1 121 0.000000e+00 0.000000e+00 3.442571e+03 # CA1-SC62 type=non-native eps=0.002390 sigma=3.259921
pair_coeff 1 122 0.000000e+00 0.000000e+00 4.009755e+04 # CA1-CA63 type=non-native eps=0.002390 sigma=4.000000
pair_coeff 1 123 0.000000e+00 0.000000e+00 4.009755e+04 # CA1-CA64 type=non-native eps=0.002390 sigma=4.000000
pair_coeff 1 124 0.000000e+00 0.000000e+00 4.009755e+04 # CA1-SC64 type=non-native eps=0.002390 sigma=4.000000
pair_coeff 1 125 0.000000e+00 0.000000e+00 4.009755e+04 # CA1-CA65 type=non-native eps=0.002390 sigma=4.000000
pair_coeff 1 126 0.000000e+00 0.000000e+00 4.009755e+04 # CA1-CA66 type=non-native eps=0.002390 sigma=4.000000
pair_coeff 1 127 0.000000e+00 0.000000e+00 6.317440e+04 # CA1-SC66 type=non-native eps=0.002390 sigma=4.154435
pair_coeff 1 128 0.000000e+00 0.000000e+00 4.009755e+04 # CA1-CA67 type=non-native eps=0.002390 sigma=4.000000
pair_coeff 1 129 0.000000e+00 0.000000e+00 6.317440e+04 # CA1-SC67 type=non-native eps=0.002390 sigma=4.154435
pair_coeff 1 130 0.000000e+00 0.000000e+00 4.009755e+04 # CA1-CA68 type=non-native eps=0.002390 sigma=4.000000
pair_coeff 1 131 0.000000e+00 0.000000e+00 1.085818e+04 # CA1-SC68 type=non-native eps=0.002390 sigma=3.587401
pair_coeff 1 132 0.000000e+00 0.000000e+00 4.009755e+04 # CA1-CA69 type=non-native eps=0.002390 sigma=4.000000
pair_coeff 1 133 0.000000e+00 0.000000e+00 6.317440e+04 # CA1-SC69 type=non-native eps=0.002390 sigma=4.154435
pair_coeff 1 134 0.000000e+00 0.000000e+00 4.009755e+04 # CA1-CA70 type=non-native eps=0.002390 sigma=4.000000
pair_coeff 1 135 0.000000e+00 0.000000e+00 1.293687e+05 # CA1-SC70 type=non-native eps=0.002390 sigma=4.410142
pair_coeff 1 136 0.000000e+00 0.000000e+00 4.009755e+04 # CA1-CA71 type=non-native eps=0.002390 sigma=4.000000
pair_coeff 1 137 0.000000e+00 0.000000e+00 6.317440e+04 # CA1-SC71 type=non-native eps=0.002390 sigma=4.154435
pair_coeff 1 138 0.000000e+00 0.000000e+00 4.009755e+04 # CA1-CA72 type=non-native eps=0.002390 sigma=4.000000
pair_coeff 1 139 0.000000e+00 0.000000e+00 4.009755e+04 # CA1-SC72 type=non-native eps=0.002390 sigma=4.000000
pair_coeff 1 140 0.000000e+00 0.000000e+00 4.009755e+04 # CA1-CA73 type=non-native eps=0.002390 sigma=4.000000
pair_coeff 1 141 0.000000e+00 0.000000e+00 1.293687e+05 # CA1-SC73 type=non-native eps=0.002390 sigma=4.410142
pair_coeff 1 142 0.000000e+00 0.000000e+00 4.009755e+04 # CA1-CA74 type=non-native eps=0.002390 sigma=4.000000
pair_coeff 1 143 0.000000e+00 0.000000e+00 6.317440e+04 # CA1-SC74 type=non-native eps=0.002390 sigma=4.154435
pair_coeff 1 144 0.000000e+00 0.000000e+00 4.009755e+04 # CA1-CA75 type=non-native eps=0.002390 sigma=4.000000
pair_coeff 1 145 -8.182292e+02 0.000000e+00 1.167188e+06 # CA1-SC75 type=native eps=0.143400 sigma=3.766020
pair_coeff 1 146 0.000000e+00 0.000000e+00 4.009755e+04 # CA1-CA76 type=non-native eps=0.002390 sigma=4.000000
pair_coeff 1 147 0.000000e+00 0.000000e+00 2.286802e+04 # CA1-SC76 type=non-native eps=0.002390 sigma=3.817121
pair_coeff 1 148 0.000000e+00 0.000000e+00 4.009755e+04 # CA1-CA77 type=non-native eps=0.002390 sigma=4.000000
pair_coeff 1 149 0.000000e+00 0.000000e+00 4.009755e+04 # CA1-SC77 type=non-native eps=0.002390 sigma=4.000000
pair_coeff 1 150 0.000000e+00 0.000000e+00 4.009755e+04 # CA1-CA78 type=non-native eps=0.002390 sigma=4.000000
pair_coeff 1 151 0.000000e+00 0.000000e+00 2.286802e+04 # CA1-SC78 type=non-native eps=0.002390 sigma=3.817121
pair_coeff 1 152 -9.454089e+03 0.000000e+00 2.804805e+08 # CA1-CA79 type=native eps=0.079667 sigma=6.245284
pair_coeff 1 153 0.000000e+00 0.000000e+00 2.286802e+04 # CA1-SC79 type=non-native eps=0.002390 sigma=3.817121
pair_coeff 1 154 0.000000e+00 0.000000e+00 4.009755e+04 # CA1-CA80 type=non-native eps=0.002390 sigma=4.000000
pair_coeff 1 155 0.000000e+00 0.000000e+00 6.317440e+04 # CA1-SC80 type=non-native eps=0.002390 sigma=4.154435
pair_coeff 1 156 0.000000e+00 0.000000e+00 4.009755e+04 # CA1-CA81 type=non-native eps=0.002390 sigma=4.000000
pair_coeff 1 157 0.000000e+00 0.000000e+00 4.009755e+04 # CA1-SC81 type=non-native eps=0.002390 sigma=4.000000
pair_coeff 1 158 0.000000e+00 0.000000e+00 4.009755e+04 # CA1-CA82 type=non-native eps=0.002390 sigma=4.000000
pair_coeff 1 159 0.000000e+00 0.000000e+00 2.286802e+04 # CA1-SC82 type=non-native eps=0.002390 sigma=3.817121
pair_coeff 1 160 0.000000e+00 0.000000e+00 4.009755e+04 # CA1-CA83 type=non-native eps=0.002390 sigma=4.000000
pair_coeff 1 161 0.000000e+00 0.000000e+00 4.009755e+04 # CA1-CA84 type=non-native eps=0.002390 sigma=4.000000
pair_coeff 1 162 0.000000e+00 0.000000e+00 1.293687e+05 # CA1-SC84 type=non-native eps=0.002390 sigma=4.410142
pair_coeff 1 163 0.000000e+00 0.000000e+00 4.009755e+04 # CA1-CA85 type=non-native eps=0.002390 sigma=4.000000
pair_coeff 1 164 0.000000e+00 0.000000e+00 6.317440e+04 # CA1-SC85 type=non-native eps=0.002390 sigma=4.154435
pair_coeff 1 165 0.000000e+00 0.000000e+00 4.009755e+04 # CA1-CA86 type=non-native eps=0.002390 sigma=4.000000
pair_coeff 1 166 0.000000e+00 0.000000e+00 1.085818e+04 # CA1-SC86 type=non-native eps=0.002390 sigma=3.587401
pair_coeff 1 167 0.000000e+00 0.000000e+00 4.009755e+04 # CA1-CA87 type=non-native eps=0.002390 sigma=4.000000
pair_coeff 1 168 0.000000e+00 0.000000e+00 1.293687e+05 # CA1-SC87 type=non-native eps=0.002390 sigma=4.410142
pair_coeff 1 169 0.000000e+00 0.000000e+00 4.009755e+04 # CA1-CA88 type=non-native eps=0.002390 sigma=4.000000
pair_coeff 1 170 0.000000e+00 0.000000e+00 6.317440e+04 # CA1-SC88 type=non-native eps=0.002390 sigma=4.154435
pair_coeff 1 171 0.000000e+00 0.000000e+00 4.009755e+04 # CA1-CA89 type=non-native eps=0.002390 sigma=4.000000
pair_coeff 1 172 0.000000e+00 0.000000e+00 4.009755e+04 # CA1-SC89 type=non-native eps=0.002390 sigma=4.000000
pair_coeff 1 173 0.000000e+00 0.000000e+00 4.009755e+04 # CA1-CA90 type=non-native eps=0.002390 sigma=4.000000
pair_coeff 1 174 0.000000e+00 0.000000e+00 4.009755e+04 # CA1-SC90 type=non-native eps=0.002390 sigma=4.000000
pair_coeff 1 175 0.000000e+00 0.000000e+00 4.009755e+04 # CA1-CA91 type=non-native eps=0.002390 sigma=4.000000
pair_coeff 1 176 0.000000e+00 0.000000e+00 4.009755e+04 # CA1-SC91 type=non-native eps=0.002390 sigma=4.000000
pair_coeff 1 177 0.000000e+00 0.000000e+00 4.009755e+04 # CA1-CA92 type=non-native eps=0.002390 sigma=4.000000
pair_coeff 1 178 0.000000e+00 0.000000e+00 4.009755e+04 # CA1-SC92 type=non-native eps=0.002390 sigma=4.000000
pair_coeff 1 179 0.000000e+00 0.000000e+00 4.009755e+04 # CA1-CA93 type=non-native eps=0.002390 sigma=4.000000
pair_coeff 1 180 0.000000e+00 0.000000e+00 4.009755e+04 # CA1-SC93 type=non-native eps=0.002390 sigma=4.000000
pair_coeff 1 181 0.000000e+00 0.000000e+00 4.009755e+04 # CA1-CA94 type=non-native eps=0.002390 sigma=4.000000
pair_coeff 1 182 0.000000e+00 0.000000e+00 4.009755e+04 # CA1-SC94 type=non-native eps=0.002390 sigma=4.000000
pair_coeff 1 183 0.000000e+00 0.000000e+00 4.009755e+04 # CA1-CA95 type=non-native eps=0.002390 sigma=4.000000
pair_coeff 1 184 0.000000e+00 0.000000e+00 4.009755e+04 # CA1-CA96 type=non-native eps=0.002390 sigma=4.000000
pair_coeff 1 185 0.000000e+00 0.000000e+00 2.264320e+05 # CA1-SC96 type=non-native eps=0.002390 sigma=4.620741
pair_coeff 2 2 0.000000e+00 0.000000e+00 4.009755e+04 # SC1-SC1 type=non-native eps=0.002390 sigma=4.000000
pair_coeff 2 3 0.000000e+00 0.000000e+00 4.009755e+04 # SC1-CA2 type=non-native eps=0.002390 sigma=4.000000
pair_coeff 2 4 0.000000e+00 0.000000e+00 4.009755e+04 # SC1-SC2 type=non-native eps=0.002390 sigma=4.000000
pair_coeff 2 5 0.000000e+00 0.000000e+00 4.009755e+04 # SC1-CA3 type=non-native eps=0.002390 sigma=4.000000
pair_coeff 2 6 0.000000e+00 0.000000e+00 4.009755e+04 # SC1-SC3 type=non-native eps=0.002390 sigma=4.000000
pair_coeff 2 7 0.000000e+00 0.000000e+00 4.009755e+04 # SC1-CA4 type=non-native eps=0.002390 sigma=4.000000
pair_coeff 2 8 0.000000e+00 0.000000e+00 4.009755e+04 # SC1-SC4 type=non-native eps=0.002390 sigma=4.000000
pair_coeff 2 9 0.000000e+00 0.000000e+00 4.009755e+04 # SC1-CA5 type=non-native eps=0.002390 sigma=4.000000
pair_coeff 2 10 0.000000e+00 0.000000e+00 4.009755e+04 # SC1-CA6 type=non-native eps=0.002390 sigma=4.000000
pair_coeff 2 11 0.000000e+00 0.000000e+00 4.009755e+04 # SC1-SC6 type=non-native eps=0.002390 sigma=4.000000
pair_coeff 2 12 0.000000e+00 0.000000e+00 4.009755e+04 # SC1-CA7 type=non-native eps=0.002390 sigma=4.000000
pair_coeff 2 13 0.000000e+00 0.000000e+00 4.009755e+04 # SC1-SC7 type=non-native eps=0.002390 sigma=4.000000
pair_coeff 2 14 0.000000e+00 0.000000e+00 4.009755e+04 # SC1-CA8 type=non-native eps=0.002390 sigma=4.000000
pair_coeff 2 15 0.000000e+00 0.000000e+00 4.009755e+04 # SC1-SC8 type=non-native eps=0.002390 sigma=4.000000
pair_coeff 2 16 0.000000e+00 0.000000e+00 4.009755e+04 # SC1-CA9 type=non-native eps=0.002390 sigma=4.000000
pair_coeff 2 17 0.000000e+00 0.000000e+00 6.317440e+04 # SC1-SC9 type=non-native eps=0.002390 sigma=4.154435
pair_coeff 2 18 0.000000e+00 0.000000e+00 4.009755e+04 # SC1-CA10 type=non-native eps=0.002390 sigma=4.000000
pair_coeff 2 19 0.000000e+00 0.000000e+00 4.009755e+04 # SC1-SC10 type=non-native eps=0.002390 sigma=4.000000
pair_coeff 2 20 0.000000e+00 0.000000e+00 4.009755e+04 # SC1-CA11 type=non-native eps=0.002390 sigma=4.000000
pair_coeff 2 21 0.000000e+00 0.000000e+00 6.317440e+04 # SC1-SC11 type=non-native eps=0.002390 sigma=4.154435
pair_coeff 2 22 0.000000e+00 0.000000e+00 4.009755e+04 # SC1-CA12 type=non-native eps=0.002390 sigma=4.000000
pair_coeff 2 23 0.000000e+00 0.000000e+00 4.009755e+04 # SC1-SC12 type=non-native eps=0.002390 sigma=4.000000
pair_coeff 2 24 0.000000e+00 0.000000e+00 4.009755e+04 # SC1-CA13 type=non-native eps=0.002390 sigma=4.000000
pair_coeff 2 25 0.000000e+00 0.000000e+00 6.317440e+04 # SC1-SC13 type=non-native eps=0.002390 sigma=4.154435
pair_coeff 2 26 0.000000e+00 0.000000e+00 4.009755e+04 # SC1-CA14 type=non-native eps=0.002390 sigma=4.000000
pair_coeff 2 27 0.000000e+00 0.000000e+00 4.009755e+04 # SC1-SC14 type=non-native eps=0.002390 sigma=4.000000
pair_coeff 2 28 0.000000e+00 0.000000e+00 4.009755e+04 # SC1-CA15 type=non-native eps=0.002390 sigma=4.000000
pair_coeff 2 29 0.000000e+00 0.000000e+00 2.286802e+04 # SC1-SC15 type=non-native eps=0.002390 sigma=3.817121
pair_coeff 2 30 0.000000e+00 0.000000e+00 4.009755e+04 # SC1-CA16 type=non-native eps=0.002390 sigma=4.000000
pair_coeff 2 31 0.000000e+00 0.000000e+00 2.286802e+04 # SC1-SC16 type=non-native eps=0.002390 sigma=3.817121
pair_coeff 2 32 0.000000e+00 0.000000e+00 4.009755e+04 # SC1-CA17 type=non-native eps=0.002390 sigma=4.000000
pair_coeff 2 33 0.000000e+00 0.000000e+00 4.009755e+04 # SC1-SC17 type=non-native eps=0.002390 sigma=4.000000
pair_coeff 2 34 0.000000e+00 0.000000e+00 4.009755e+04 # SC1-CA18 type=non-native eps=0.002390 sigma=4.000000
pair_coeff 2 35 0.000000e+00 0.000000e+00 4.009755e+04 # SC1-SC18 type=non-native eps=0.002390 sigma=4.000000
pair_coeff 2 36 0.000000e+00 0.000000e+00 4.009755e+04 # SC1-CA19 type=non-native eps=0.002390 sigma=4.000000
pair_coeff 2 37 0.000000e+00 0.000000e+00 4.009755e+04 # SC1-SC19 type=non-native eps=0.002390 sigma=4.000000
pair_coeff 2 38 0.000000e+00 0.000000e+00 4.009755e+04 # SC1-CA20 type=non-native eps=0.002390 sigma=4.000000
pair_coeff 2 39 0.000000e+00 0.000000e+00 4.009755e+04 # SC1-SC20 type=non-native eps=0.002390 sigma=4.000000
pair_coeff 2 40 0.000000e+00 0.000000e+00 4.009755e+04 # SC1-CA21 type=non-native eps=0.002390 sigma=4.000000
pair_coeff 2 41 0.000000e+00 0.000000e+00 1.293687e+05 # SC1-SC21 type=non-native eps=0.002390 sigma=4.410142
pair_coeff 2 42 0.000000e+00 0.000000e+00 4.009755e+04 # SC1-CA22 type=non-native eps=0.002390 sigma=4.000000
pair_coeff 2 43 0.000000e+00 0.000000e+00 4.009755e+04 # SC1-CA23 type=non-native eps=0.002390 sigma=4.000000
pair_coeff 2 44 0.000000e+00 0.000000e+00 6.317440e+04 # SC1-SC23 type=non-native eps=0.002390 sigma=4.154435
pair_coeff 2 45 0.000000e+00 0.000000e+00 4.009755e+04 # SC1-CA24 type=non-native eps=0.002390 sigma=4.000000
pair_coeff 2 46 0.000000e+00 0.000000e+00 6.317440e+04 # SC1-SC24 type=non-native eps=0.002390 sigma=4.154435
pair_coeff 2 47 0.000000e+00 0.000000e+00 4.009755e+04 # SC1-CA25 type=non-native eps=0.002390 sigma=4.000000
pair_coeff 2 48 0.000000e+00 0.000000e+00 4.009755e+04 # SC1-SC25 type=non-native eps=0.002390 sigma=4.000000
pair_coeff 2 49 0.000000e+00 0.000000e+00 4.009755e+04 # SC1-CA26 type=non-native eps=0.002390 sigma=4.000000
pair_coeff 2 50 0.000000e+00 0.000000e+00 4.009755e+04 # SC1-SC26 type=non-native eps=0.002390 sigma=4.000000
pair_coeff 2 51 0.000000e+00 0.000000e+00 4.009755e+04 # SC1-CA27 type=non-native eps=0.002390 sigma=4.000000
pair_coeff 2 52 0.000000e+00 0.000000e+00 4.009755e+04 # SC1-SC27 type=non-native eps=0.002390 sigma=4.000000
pair_coeff 2 53 0.000000e+00 0.000000e+00 4.009755e+04 # SC1-CA28 type=non-native eps=0.002390 sigma=4.000000
pair_coeff 2 54 0.000000e+00 0.000000e+00 6.317440e+04 # SC1-SC28 type=non-native eps=0.002390 sigma=4.154435
pair_coeff 2 55 0.000000e+00 0.000000e+00 4.009755e+04 # SC1-CA29 type=non-native eps=0.002390 sigma=4.000000
pair_coeff 2 56 0.000000e+00 0.000000e+00 1.293687e+05 # SC1-SC29 type=non-native eps=0.002390 sigma=4.410142
pair_coeff 2 57 0.000000e+00 0.000000e+00 4.009755e+04 # SC1-CA30 type=non-native eps=0.002390 sigma=4.000000
pair_coeff 2 58 0.000000e+00 0.000000e+00 6.317440e+04 # SC1-SC30 type=non-native eps=0.002390 sigma=4.154435
pair_coeff 2 59 0.000000e+00 0.000000e+00 4.009755e+04 # SC1-CA31 type=non-native eps=0.002390 sigma=4.000000
pair_coeff 2 60 0.000000e+00 0.000000e+00 4.009755e+04 # SC1-SC31 type=non-native eps=0.002390 sigma=4.000000
pair_coeff 2 61 0.000000e+00 0.000000e+00 4.009755e+04 # SC1-CA32 type=non-native eps=0.002390 sigma=4.000000
pair_coeff 2 62 0.000000e+00 0.000000e+00 4.009755e+04 # SC1-SC32 type=non-native eps=0.002390 sigma=4.000000
pair_coeff 2 63 0.000000e+00 0.000000e+00 4.009755e+04 # SC1-CA33 type=non-native eps=0.002390 sigma=4.000000
pair_coeff 2 64 0.000000e+00 0.000000e+00 4.009755e+04 # SC1-SC33 type=non-native eps=0.002390 sigma=4.000000
pair_coeff 2 65 0.000000e+00 0.000000e+00 4.009755e+04 # SC1-CA34 type=non-native eps=0.002390 sigma=4.000000
pair_coeff 2 66 0.000000e+00 0.000000e+00 6.317440e+04 # SC1-SC34 type=non-native eps=0.002390 sigma=4.154435
pair_coeff 2 67 0.000000e+00 0.000000e+00 4.009755e+04 # SC1-CA35 type=non-native eps=0.002390 sigma=4.000000
pair_coeff 2 68 0.000000e+00 0.000000e+00 4.009755e+04 # SC1-SC35 type=non-native eps=0.002390 sigma=4.000000
pair_coeff 2 69 0.000000e+00 0.000000e+00 4.009755e+04 # SC1-CA36 type=non-native eps=0.002390 sigma=4.000000
pair_coeff 2 70 0.000000e+00 0.000000e+00 6.317440e+04 # SC1-SC36 type=non-native eps=0.002390 sigma=4.154435
pair_coeff 2 71 0.000000e+00 0.000000e+00 4.009755e+04 # SC1-CA37 type=non-native eps=0.002390 sigma=4.000000
pair_coeff 2 72 0.000000e+00 0.000000e+00 1.737309e+05 # SC1-SC37 type=non-native eps=0.002390 sigma=4.519842
pair_coeff 2 73 0.000000e+00 0.000000e+00 4.009755e+04 # SC1-CA38 type=non-native eps=0.002390 sigma=4.000000
pair_coeff 2 74 0.000000e+00 0.000000e+00 4.009755e+04 # SC1-CA39 type=non-native eps=0.002390 sigma=4.000000
pair_coeff 2 75 0.000000e+00 0.000000e+00 2.286802e+04 # SC1-SC39 type=non-native eps=0.002390 sigma=3.817121
pair_coeff 2 76 0.000000e+00 0.000000e+00 4.009755e+04 # SC1-CA40 type=non-native eps=0.002390 sigma=4.000000
pair_coeff 2 77 0.000000e+00 0.000000e+00 4.009755e+04 # SC1-SC40 type=non-native eps=0.002390 sigma=4.000000
pair_coeff 2 78 0.000000e+00 0.000000e+00 4.009755e+04 # SC1-CA41 type=non-native eps=0.002390 sigma=4.000000
pair_coeff 2 79 0.000000e+00 0.000000e+00 2.286802e+04 # SC1-SC41 type=non-native eps=0.002390 sigma=3.817121
pair_coeff 2 80 0.000000e+00 0.000000e+00 4.009755e+04 # SC1-CA42 type=non-native eps=0.002390 sigma=4.000000
pair_coeff 2 81 0.000000e+00 0.000000e+00 6.317440e+04 # SC1-SC42 type=non-native eps=0.002390 sigma=4.154435
pair_coeff 2 82 0.000000e+00 0.000000e+00 4.009755e+04 # SC1-CA43 type=non-native eps=0.002390 sigma=4.000000
pair_coeff 2 83 0.000000e+00 0.000000e+00 4.009755e+04 # SC1-SC43 type=non-native eps=0.002390 sigma=4.000000
pair_coeff 2 84 0.000000e+00 0.000000e+00 4.009755e+04 # SC1-CA44 type=non-native eps=0.002390 sigma=4.000000
pair_coeff 2 85 0.000000e+00 0.000000e+00 4.009755e+04 # SC1-SC44 type=non-native eps=0.002390 sigma=4.000000
pair_coeff 2 86 0.000000e+00 0.000000e+00 4.009755e+04 # SC1-CA45 type=non-native eps=0.002390 sigma=4.000000
pair_coeff 2 87 0.000000e+00 0.000000e+00 6.317440e+04 # SC1-SC45 type=non-native eps=0.002390 sigma=4.154435
pair_coeff 2 88 0.000000e+00 0.000000e+00 4.009755e+04 # SC1-CA46 type=non-native eps=0.002390 sigma=4.000000
pair_coeff 2 89 0.000000e+00 0.000000e+00 4.009755e+04 # SC1-SC46 type=non-native eps=0.002390 sigma=4.000000
pair_coeff 2 90 0.000000e+00 0.000000e+00 4.009755e+04 # SC1-CA47 type=non-native eps=0.002390 sigma=4.000000
pair_coeff 2 91 0.000000e+00 0.000000e+00 4.009755e+04 # SC1-SC47 type=non-native eps=0.002390 sigma=4.000000
pair_coeff 2 92 0.000000e+00 0.000000e+00 4.009755e+04 # SC1-CA48 type=non-native eps=0.002390 sigma=4.000000
pair_coeff 2 93 0.000000e+00 0.000000e+00 6.317440e+04 # SC1-SC48 type=non-native eps=0.002390 sigma=4.154435
pair_coeff 2 94 0.000000e+00 0.000000e+00 4.009755e+04 # SC1-CA49 type=non-native eps=0.002390 sigma=4.000000
pair_coeff 2 95 0.000000e+00 0.000000e+00 2.286802e+04 # SC1-SC49 type=non-native eps=0.002390 sigma=3.817121
pair_coeff 2 96 0.000000e+00 0.000000e+00 4.009755e+04 # SC1-CA50 type=non-native eps=0.002390 sigma=4.000000
pair_coeff 2 97 0.000000e+00 0.000000e+00 1.085818e+04 # SC1-SC50 type=non-native eps=0.002390 sigma=3.587401
pair_coeff 2 98 0.000000e+00 0.000000e+00 4.009755e+04 # SC1-CA51 type=non-native eps=0.002390 sigma=4.000000
pair_coeff 2 99 0.000000e+00 0.000000e+00 6.317440e+04 # SC1-SC51 type=non-native eps=0.002390 sigma=4.154435
pair_coeff 2 100 0.000000e+00 0.000000e+00 4.009755e+04 # SC1-CA52 type=non-native eps=0.002390 sigma=4.000000
pair_coeff 2 101 0.000000e+00 0.000000e+00 4.009755e+04 # SC1-SC52 type=non-native eps=0.002390 sigma=4.000000
pair_coeff 2 102 0.000000e+00 0.000000e+00 4.009755e+04 # SC1-CA53 type=non-native eps=0.002390 sigma=4.000000
pair_coeff 2 103 0.000000e+00 0.000000e+00 6.317440e+04 # SC1-SC53 type=non-native eps=0.002390 sigma=4.154435
pair_coeff 2 104 0.000000e+00 0.000000e+00 4.009755e+04 # SC1-CA54 type=non-native eps=0.002390 sigma=4.000000
pair_coeff 2 105 0.000000e+00 0.000000e+00 1.293687e+05 # SC1-SC54 type=non-native eps=0.002390 sigma=4.410142
pair_coeff 2 106 0.000000e+00 0.000000e+00 4.009755e+04 # SC1-CA55 type=non-native eps=0.002390 sigma=4.000000
pair_coeff 2 107 0.000000e+00 0.000000e+00 1.293687e+05 # SC1-SC55 type=non-native eps=0.002390 sigma=4.410142
pair_coeff 2 108 0.000000e+00 0.000000e+00 4.009755e+04 # SC1-CA56 type=non-native eps=0.002390 sigma=4.000000
pair_coeff 2 109 0.000000e+00 0.000000e+00 1.737309e+05 # SC1-SC56 type=non-native eps=0.002390 sigma=4.519842
pair_coeff 2 110 0.000000e+00 0.000000e+00 4.009755e+04 # SC1-CA57 type=non-native eps=0.002390 sigma=4.000000
pair_coeff 2 111 0.000000e+00 0.000000e+00 1.737309e+05 # SC1-SC57 type=non-native eps=0.002390 sigma=4.519842
pair_coeff 2 112 0.000000e+00 0.000000e+00 4.009755e+04 # SC1-CA58 type=non-native eps=0.002390 sigma=4.000000
pair_coeff 2 113 0.000000e+00 0.000000e+00 2.286802e+04 # SC1-SC58 type=non-native eps=0.002390 sigma=3.817121
pair_coeff 2 114 0.000000e+00 0.000000e+00 4.009755e+04 # SC1-CA59 type=non-native eps=0.002390 sigma=4.000000
pair_coeff 2 115 0.000000e+00 0.000000e+00 1.085818e+04 # SC1-SC59 type=non-native eps=0.002390 sigma=3.587401
pair_coeff 2 116 0.000000e+00 0.000000e+00 4.009755e+04 # SC1-CA60 type=non-native eps=0.002390 sigma=4.000000
pair_coeff 2 117 0.000000e+00 0.000000e+00 2.286802e+04 # SC1-SC60 type=non-native eps=0.002390 sigma=3.817121
pair_coeff 2 118 0.000000e+00 0.000000e+00 4.009755e+04 # SC1-CA61 type=non-native eps=0.002390 sigma=4.000000
pair_coeff 2 119 0.000000e+00 0.000000e+00 4.009755e+04 # SC1-SC61 type=non-native eps=0.002390 sigma=4.000000
pair_coeff 2 120 0.000000e+00 0.000000e+00 4.009755e+04 # SC1-CA62 type=non-native eps=0.002390 sigma=4.000000
pair_coeff 2 121 0.000000e+00 0.000000e+00 3.442571e+03 # SC1-SC62 type=non-native eps=0.002390 sigma=3.259921
pair_coeff 2 122 0.000000e+00 0.000000e+00 4.009755e+04 # SC1-CA63 type=non-native eps=0.002390 sigma=4.000000
pair_coeff 2 123 0.000000e+00 0.000000e+00 4.009755e+04 # SC1-CA64 type=non-native eps=0.002390 sigma=4.000000
pair_coeff 2 124 0.000000e+00 0.000000e+00 4.009755e+04 # SC1-SC64 type=non-native eps=0.002390 sigma=4.000000
pair_coeff 2 125 0.000000e+00 0.000000e+00 4.009755e+04 # SC1-CA65 type=non-native eps=0.002390 sigma=4.000000
pair_coeff 2 126 0.000000e+00 0.000000e+00 4.009755e+04 # SC1-CA66 type=non-native eps=0.002390 sigma=4.000000
pair_coeff 2 127 0.000000e+00 0.000000e+00 6.317440e+04 # SC1-SC66 type=non-native eps=0.002390 sigma=4.154435
pair_coeff 2 128 0.000000e+00 0.000000e+00 4.009755e+04 # SC1-CA67 type=non-native eps=0.002390 sigma=4.000000
pair_coeff 2 129 0.000000e+00 0.000000e+00 6.317440e+04 # SC1-SC67 type=non-native eps=0.002390 sigma=4.154435
pair_coeff 2 130 0.000000e+00 0.000000e+00 4.009755e+04 # SC1-CA68 type=non-native eps=0.002390 sigma=4.000000
pair_coeff 2 131 0.000000e+00 0.000000e+00 1.085818e+04 # SC1-SC68 type=non-native eps=0.002390 sigma=3.587401
pair_coeff 2 132 0.000000e+00 0.000000e+00 4.009755e+04 # SC1-CA69 type=non-native eps=0.002390 sigma=4.000000
pair_coeff 2 133 0.000000e+00 0.000000e+00 6.317440e+04 # SC1-SC69 type=non-native eps=0.002390 sigma=4.154435
pair_coeff 2 134 0.000000e+00 0.000000e+00 4.009755e+04 # SC1-CA70 type=non-native eps=0.002390 sigma=4.000000
pair_coeff 2 135 0.000000e+00 0.000000e+00 1.293687e+05 # SC1-SC70 type=non-native eps=0.002390 sigma=4.410142
pair_coeff 2 136 0.000000e+00 0.000000e+00 4.009755e+04 # SC1-CA71 type=non-native eps=0.002390 sigma=4.000000
pair_coeff 2 137 0.000000e+00 0.000000e+00 6.317440e+04 # SC1-SC71 type=non-native eps=0.002390 sigma=4.154435
pair_coeff 2 138 0.000000e+00 0.000000e+00 4.009755e+04 # SC1-CA72 type=non-native eps=0.002390 sigma=4.000000
pair_coeff 2 139 0.000000e+00 0.000000e+00 4.009755e+04 # SC1-SC72 type=non-native eps=0.002390 sigma=4.000000
pair_coeff 2 140 0.000000e+00 0.000000e+00 4.009755e+04 # SC1-CA73 type=non-native eps=0.002390 sigma=4.000000
pair_coeff 2 141 0.000000e+00 0.000000e+00 1.293687e+05 # SC1-SC73 type=non-native eps=0.002390 sigma=4.410142
pair_coeff 2 142 0.000000e+00 0.000000e+00 4.009755e+04 # SC1-CA74 type=non-native eps=0.002390 sigma=4.000000
pair_coeff 2 143 0.000000e+00 0.000000e+00 6.317440e+04 # SC1-SC74 type=non-native eps=0.002390 sigma=4.154435
pair_coeff 2 144 0.000000e+00 0.000000e+00 4.009755e+04 # SC1-CA75 type=non-native eps=0.002390 sigma=4.000000
pair_coeff 2 145 -3.643360e+03 0.000000e+00 3.471253e+07 # SC1-SC75 type=native eps=0.095600 sigma=5.168157
pair_coeff 2 146 0.000000e+00 0.000000e+00 4.009755e+04 # SC1-CA76 type=non-native eps=0.002390 sigma=4.000000
pair_coeff 2 147 0.000000e+00 0.000000e+00 2.286802e+04 # SC1-SC76 type=non-native eps=0.002390 sigma=3.817121
pair_coeff 2 148 0.000000e+00 0.000000e+00 4.009755e+04 # SC1-CA77 type=non-native eps=0.002390 sigma=4.000000
pair_coeff 2 149 0.000000e+00 0.000000e+00 4.009755e+04 # SC1-SC77 type=non-native eps=0.002390 sigma=4.000000
pair_coeff 2 150 0.000000e+00 0.000000e+00 4.009755e+04 # SC1-CA78 type=non-native eps=0.002390 sigma=4.000000
pair_coeff 2 151 0.000000e+00 0.000000e+00 2.286802e+04 # SC1-SC78 type=non-native eps=0.002390 sigma=3.817121
pair_coeff 2 152 -1.645100e+04 0.000000e+00 5.661832e+08 # SC1-CA79 type=native eps=0.119500 sigma=6.401756
pair_coeff 2 153 -1.719308e+04 0.000000e+00 1.855242e+09 # SC1-SC79 type=native eps=0.039833 sigma=7.744847
pair_coeff 2 154 0.000000e+00 0.000000e+00 4.009755e+04 # SC1-CA80 type=non-native eps=0.002390 sigma=4.000000
pair_coeff 2 155 0.000000e+00 0.000000e+00 6.317440e+04 # SC1-SC80 type=non-native eps=0.002390 sigma=4.154435
pair_coeff 2 156 0.000000e+00 0.000000e+00 4.009755e+04 # SC1-CA81 type=non-native eps=0.002390 sigma=4.000000
pair_coeff 2 157 0.000000e+00 0.000000e+00 4.009755e+04 # SC1-SC81 type=non-native eps=0.002390 sigma=4.000000
pair_coeff 2 158 0.000000e+00 0.000000e+00 4.009755e+04 # SC1-CA82 type=non-native eps=0.002390 sigma=4.000000
pair_coeff 2 159 0.000000e+00 0.000000e+00 2.286802e+04 # SC1-SC82 type=non-native eps=0.002390 sigma=3.817121
pair_coeff 2 160 0.000000e+00 0.000000e+00 4.009755e+04 # SC1-CA83 type=non-native eps=0.002390 sigma=4.000000
pair_coeff 2 161 0.000000e+00 0.000000e+00 4.009755e+04 # SC1-CA84 type=non-native eps=0.002390 sigma=4.000000
pair_coeff 2 162 0.000000e+00 0.000000e+00 1.293687e+05 # SC1-SC84 type=non-native eps=0.002390 sigma=4.410142
pair_coeff 2 163 0.000000e+00 0.000000e+00 4.009755e+04 # SC1-CA85 type=non-native eps=0.002390 sigma=4.000000
pair_coeff 2 164 0.000000e+00 0.000000e+00 6.317440e+04 # SC1-SC85 type=non-native eps=0.002390 sigma=4.154435
pair_coeff 2 165 0.000000e+00 0.000000e+00 4.009755e+04 # SC1-CA86 type=non-native eps=0.002390 sigma=4.000000
pair_coeff 2 166 0.000000e+00 0.000000e+00 1.085818e+04 # SC1-SC86 type=non-native eps=0.002390 sigma=3.587401
pair_coeff 2 167 0.000000e+00 0.000000e+00 4.009755e+04 # SC1-CA87 type=non-native eps=0.002390 sigma=4.000000
pair_coeff 2 168 0.000000e+00 0.000000e+00 1.293687e+05 # SC1-SC87 type=non-native eps=0.002390 sigma=4.410142
pair_coeff 2 169 0.000000e+00 0.000000e+00 4.009755e+04 # SC1-CA88 type=non-native eps=0.002390 sigma=4.000000
pair_coeff 2 170 0.000000e+00 0.000000e+00 6.317440e+04 # SC1-SC88 type=non-native eps=0.002390 sigma=4.154435
pair_coeff 2 171 0.000000e+00 0.000000e+00 4.009755e+04 # SC1-CA89 type=non-native eps=0.002390 sigma=4.000000
pair_coeff 2 172 0.000000e+00 0.000000e+00 4.009755e+04 # SC1-SC89 type=non-native eps=0.002390 sigma=4.000000
pair_coeff 2 173 0.000000e+00 0.000000e+00 4.009755e+04 # SC1-CA90 type=non-native eps=0.002390 sigma=4.000000
pair_coeff 2 174 0.000000e+00 0.000000e+00 4.009755e+04 # SC1-SC90 type=non-native eps=0.002390 sigma=4.000000
pair_coeff 2 175 0.000000e+00 0.000000e+00 4.009755e+04 # SC1-CA91 type=non-native eps=0.002390 sigma=4.000000
pair_coeff 2 176 0.000000e+00 0.000000e+00 4.009755e+04 # SC1-SC91 type=non-native eps=0.002390 sigma=4.000000
pair_coeff 2 177 0.000000e+00 0.000000e+00 4.009755e+04 # SC1-CA92 type=non-native eps=0.002390 sigma=4.000000
pair_coeff 2 178 0.000000e+00 0.000000e+00 4.009755e+04 # SC1-SC92 type=non-native eps=0.002390 sigma=4.000000
pair_coeff 2 179 0.000000e+00 0.000000e+00 4.009755e+04 # SC1-CA93 type=non-native eps=0.002390 sigma=4.000000
pair_coeff 2 180 0.000000e+00 0.000000e+00 4.009755e+04 # SC1-SC93 type=non-native eps=0.002390 sigma=4.000000
pair_coeff 2 181 0.000000e+00 0.000000e+00 4.009755e+04 # SC1-CA94 type=non-native eps=0.002390 sigma=4.000000
pair_coeff 2 182 0.000000e+00 0.000000e+00 4.009755e+04 # SC1-SC94 type=non-native eps=0.002390 sigma=4.000000
pair_coeff 2 183 0.000000e+00 0.000000e+00 4.009755e+04 # SC1-CA95 type=non-native eps=0.002390 sigma=4.000000
pair_coeff 2 184 0.000000e+00 0.000000e+00 4.009755e+04 # SC1-CA96 type=non-native eps=0.002390 sigma=4.000000
pair_coeff 2 185 0.000000e+00 0.000000e+00 2.264320e+05 # SC1-SC96 type=non-native eps=0.002390 sigma=4.620741
pair_coeff 3 3 0.000000e+00 0.000000e+00 4.009755e+04 # CA2-CA2 type=non-native eps=0.002390 sigma=4.000000
pair_coeff 3 4 0.000000e+00 0.000000e+00 4.009755e+04 # CA2-SC2 type=non-native eps=0.002390 sigma=4.000000
pair_coeff 3 5 0.000000e+00 0.000000e+00 4.009755e+04 # CA2-CA3 type=non-native eps=0.002390 sigma=4.000000
pair_coeff 3 6 0.000000e+00 0.000000e+00 4.009755e+04 # CA2-SC3 type=non-native eps=0.002390 sigma=4.000000
pair_coeff 3 7 0.000000e+00 0.000000e+00 4.009755e+04 # CA2-CA4 type=non-native eps=0.002390 sigma=4.000000
pair_coeff 3 8 0.000000e+00 0.000000e+00 4.009755e+04 # CA2-SC4 type=non-native eps=0.002390 sigma=4.000000
pair_coeff 3 9 0.000000e+00 0.000000e+00 4.009755e+04 # CA2-CA5 type=non-native eps=0.002390 sigma=4.000000
pair_coeff 3 10 0.000000e+00 0.000000e+00 4.009755e+04 # CA2-CA6 type=non-native eps=0.002390 sigma=4.000000
pair_coeff 3 11 0.000000e+00 0.000000e+00 4.009755e+04 # CA2-SC6 type=non-native eps=0.002390 sigma=4.000000
pair_coeff 3 12 0.000000e+00 0.000000e+00 4.009755e+04 # CA2-CA7 type=non-native eps=0.002390 sigma=4.000000
pair_coeff 3 13 0.000000e+00 0.000000e+00 4.009755e+04 # CA2-SC7 type=non-native eps=0.002390 sigma=4.000000
pair_coeff 3 14 0.000000e+00 0.000000e+00 4.009755e+04 # CA2-CA8 type=non-native eps=0.002390 sigma=4.000000
pair_coeff 3 15 0.000000e+00 0.000000e+00 4.009755e+04 # CA2-SC8 type=non-native eps=0.002390 sigma=4.000000
pair_coeff 3 16 0.000000e+00 0.000000e+00 4.009755e+04 # CA2-CA9 type=non-native eps=0.002390 sigma=4.000000
pair_coeff 3 17 0.000000e+00 0.000000e+00 6.317440e+04 # CA2-SC9 type=non-native eps=0.002390 sigma=4.154435
pair_coeff 3 18 0.000000e+00 0.000000e+00 4.009755e+04 # CA2-CA10 type=non-native eps=0.002390 sigma=4.000000
pair_coeff 3 19 0.000000e+00 0.000000e+00 4.009755e+04 # CA2-SC10 type=non-native eps=0.002390 sigma=4.000000
pair_coeff 3 20 0.000000e+00 0.000000e+00 4.009755e+04 # CA2-CA11 type=non-native eps=0.002390 sigma=4.000000
pair_coeff 3 21 0.000000e+00 0.000000e+00 6.317440e+04 # CA2-SC11 type=non-native eps=0.002390 sigma=4.154435
pair_coeff 3 22 0.000000e+00 0.000000e+00 4.009755e+04 # CA2-CA12 type=non-native eps=0.002390 sigma=4.000000
pair_coeff 3 23 0.000000e+00 0.000000e+00 4.009755e+04 # CA2-SC12 type=non-native eps=0.002390 sigma=4.000000
pair_coeff 3 24 0.000000e+00 0.000000e+00 4.009755e+04 # CA2-CA13 type=non-native eps=0.002390 sigma=4.000000
pair_coeff 3 25 0.000000e+00 0.000000e+00 6.317440e+04 # CA2-SC13 type=non-native eps=0.002390 sigma=4.154435
pair_coeff 3 26 0.000000e+00 0.000000e+00 4.009755e+04 # CA2-CA14 type=non-native eps=0.002390 sigma=4.000000
pair_coeff 3 27 0.000000e+00 0.000000e+00 4.009755e+04 # CA2-SC14 type=non-native eps=0.002390 sigma=4.000000
pair_coeff 3 28 0.000000e+00 0.000000e+00 4.009755e+04 # CA2-CA15 type=non-native eps=0.002390 sigma=4.000000
pair_coeff 3 29 0.000000e+00 0.000000e+00 2.286802e+04 # CA2-SC15 type=non-native eps=0.002390 sigma=3.817121
pair_coeff 3 30 0.000000e+00 0.000000e+00 4.009755e+04 # CA2-CA16 type=non-native eps=0.002390 sigma=4.000000
pair_coeff 3 31 0.000000e+00 0.000000e+00 2.286802e+04 # CA2-SC16 type=non-native eps=0.002390 sigma=3.817121
pair_coeff 3 32 0.000000e+00 0.000000e+00 4.009755e+04 # CA2-CA17 type=non-native eps=0.002390 sigma=4.000000
pair_coeff 3 33 0.000000e+00 0.000000e+00 4.009755e+04 # CA2-SC17 type=non-native eps=0.002390 sigma=4.000000
pair_coeff 3 34 0.000000e+00 0.000000e+00 4.009755e+04 # CA2-CA18 type=non-native eps=0.002390 sigma=4.000000
pair_coeff 3 35 0.000000e+00 0.000000e+00 4.009755e+04 # CA2-SC18 type=non-native eps=0.002390 sigma=4.000000
pair_coeff 3 36 0.000000e+00 0.000000e+00 4.009755e+04 # CA2-CA19 type=non-native eps=0.002390 sigma=4.000000
pair_coeff 3 37 0.000000e+00 0.000000e+00 4.009755e+04 # CA2-SC19 type=non-native eps=0.002390 sigma=4.000000
pair_coeff 3 38 0.000000e+00 0.000000e+00 4.009755e+04 # CA2-CA20 type=non-native eps=0.002390 sigma=4.000000
pair_coeff 3 39 0.000000e+00 0.000000e+00 4.009755e+04 # CA2-SC20 type=non-native eps=0.002390 sigma=4.000000
pair_coeff 3 40 0.000000e+00 0.000000e+00 4.009755e+04 # CA2-CA21 type=non-native eps=0.002390 sigma=4.000000
pair_coeff 3 41 0.000000e+00 0.000000e+00 1.293687e+05 # CA2-SC21 type=non-native eps=0.002390 sigma=4.410142
pair_coeff 3 42 0.000000e+00 0.000000e+00 4.009755e+04 # CA2-CA22 type=non-native eps=0.002390 sigma=4.000000
pair_coeff 3 43 0.000000e+00 0.000000e+00 4.009755e+04 # CA2-CA23 type=non-native eps=0.002390 sigma=4.000000
pair_coeff 3 44 0.000000e+00 0.000000e+00 6.317440e+04 # CA2-SC23 type=non-native eps=0.002390 sigma=4.154435
pair_coeff 3 45 0.000000e+00 0.000000e+00 4.009755e+04 # CA2-CA24 type=non-native eps=0.002390 sigma=4.000000
pair_coeff 3 46 0.000000e+00 0.000000e+00 6.317440e+04 # CA2-SC24 type=non-native eps=0.002390 sigma=4.154435
pair_coeff 3 47 0.000000e+00 0.000000e+00 4.009755e+04 # CA2-CA25 type=non-native eps=0.002390 sigma=4.000000
pair_coeff 3 48 0.000000e+00 0.000000e+00 4.009755e+04 # CA2-SC25 type=non-native eps=0.002390 sigma=4.000000
pair_coeff 3 49 0.000000e+00 0.000000e+00 4.009755e+04 # CA2-CA26 type=non-native eps=0.002390 sigma=4.000000
pair_coeff 3 50 0.000000e+00 0.000000e+00 4.009755e+04 # CA2-SC26 type=non-native eps=0.002390 sigma=4.000000
pair_coeff 3 51 0.000000e+00 0.000000e+00 4.009755e+04 # CA2-CA27 type=non-native eps=0.002390 sigma=4.000000
pair_coeff 3 52 0.000000e+00 0.000000e+00 4.009755e+04 # CA2-SC27 type=non-native eps=0.002390 sigma=4.000000
pair_coeff 3 53 0.000000e+00 0.000000e+00 4.009755e+04 # CA2-CA28 type=non-native eps=0.002390 sigma=4.000000
pair_coeff 3 54 0.000000e+00 0.000000e+00 6.317440e+04 # CA2-SC28 type=non-native eps=0.002390 sigma=4.154435
pair_coeff 3 55 0.000000e+00 0.000000e+00 4.009755e+04 # CA2-CA29 type=non-native eps=0.002390 sigma=4.000000
pair_coeff 3 56 -1.314446e+04 0.000000e+00 9.036443e+08 # CA2-SC29 type=native eps=0.047800 sigma=7.184239
pair_coeff 3 57 0.000000e+00 0.000000e+00 4.009755e+04 # CA2-CA30 type=non-native eps=0.002390 sigma=4.000000
pair_coeff 3 58 0.000000e+00 0.000000e+00 6.317440e+04 # CA2-SC30 type=non-native eps=0.002390 sigma=4.154435
pair_coeff 3 59 0.000000e+00 0.000000e+00 4.009755e+04 # CA2-CA31 type=non-native eps=0.002390 sigma=4.000000
pair_coeff 3 60 0.000000e+00 0.000000e+00 4.009755e+04 # CA2-SC31 type=non-native eps=0.002390 sigma=4.000000
pair_coeff 3 61 0.000000e+00 0.000000e+00 4.009755e+04 # CA2-CA32 type=non-native eps=0.002390 sigma=4.000000
pair_coeff 3 62 0.000000e+00 0.000000e+00 4.009755e+04 # CA2-SC32 type=non-native eps=0.002390 sigma=4.000000
pair_coeff 3 63 0.000000e+00 0.000000e+00 4.009755e+04 # CA2-CA33 type=non-native eps=0.002390 sigma=4.000000
pair_coeff 3 64 0.000000e+00 0.000000e+00 4.009755e+04 # CA2-SC33 type=non-native eps=0.002390 sigma=4.000000
pair_coeff 3 65 0.000000e+00 0.000000e+00 4.009755e+04 # CA2-CA34 type=non-native eps=0.002390 sigma=4.000000
pair_coeff 3 66 0.000000e+00 0.000000e+00 6.317440e+04 # CA2-SC34 type=non-native eps=0.002390 sigma=4.154435
pair_coeff 3 67 0.000000e+00 0.000000e+00 4.009755e+04 # CA2-CA35 type=non-native eps=0.002390 sigma=4.000000
pair_coeff 3 68 0.000000e+00 0.000000e+00 4.009755e+04 # CA2-SC35 type=non-native eps=0.002390 sigma=4.000000
pair_coeff 3 69 0.000000e+00 0.000000e+00 4.009755e+04 # CA2-CA36 type=non-native eps=0.002390 sigma=4.000000
pair_coeff 3 70 0.000000e+00 0.000000e+00 6.317440e+04 # CA2-SC36 type=non-native eps=0.002390 sigma=4.154435
pair_coeff 3 71 0.000000e+00 0.000000e+00 4.009755e+04 # CA2-CA37 type=non-native eps=0.002390 sigma=4.000000
pair_coeff 3 72 0.000000e+00 0.000000e+00 1.737309e+05 # CA2-SC37 type=non-native eps=0.002390 sigma=4.519842
pair_coeff 3 73 0.000000e+00 0.000000e+00 4.009755e+04 # CA2-CA38 type=non-native eps=0.002390 sigma=4.000000
pair_coeff 3 74 0.000000e+00 0.000000e+00 4.009755e+04 # CA2-CA39 type=non-native eps=0.002390 sigma=4.000000
pair_coeff 3 75 0.000000e+00 0.000000e+00 2.286802e+04 # CA2-SC39 type=non-native eps=0.002390 sigma=3.817121
pair_coeff 3 76 0.000000e+00 0.000000e+00 4.009755e+04 # CA2-CA40 type=non-native eps=0.002390 sigma=4.000000
pair_coeff 3 77 0.000000e+00 0.000000e+00 4.009755e+04 # CA2-SC40 type=non-native eps=0.002390 sigma=4.000000
pair_coeff 3 78 0.000000e+00 0.000000e+00 4.009755e+04 # CA2-CA41 type=non-native eps=0.002390 sigma=4.000000
pair_coeff 3 79 0.000000e+00 0.000000e+00 2.286802e+04 # CA2-SC41 type=non-native eps=0.002390 sigma=3.817121
pair_coeff 3 80 0.000000e+00 0.000000e+00 4.009755e+04 # CA2-CA42 type=non-native eps=0.002390 sigma=4.000000
pair_coeff 3 81 0.000000e+00 0.000000e+00 6.317440e+04 # CA2-SC42 type=non-native eps=0.002390 sigma=4.154435
pair_coeff 3 82 0.000000e+00 0.000000e+00 4.009755e+04 # CA2-CA43 type=non-native eps=0.002390 sigma=4.000000
pair_coeff 3 83 0.000000e+00 0.000000e+00 4.009755e+04 # CA2-SC43 type=non-native eps=0.002390 sigma=4.000000
pair_coeff 3 84 0.000000e+00 0.000000e+00 4.009755e+04 # CA2-CA44 type=non-native eps=0.002390 sigma=4.000000
pair_coeff 3 85 0.000000e+00 0.000000e+00 4.009755e+04 # CA2-SC44 type=non-native eps=0.002390 sigma=4.000000
pair_coeff 3 86 0.000000e+00 0.000000e+00 4.009755e+04 # CA2-CA45 type=non-native eps=0.002390 sigma=4.000000
pair_coeff 3 87 0.000000e+00 0.000000e+00 6.317440e+04 # CA2-SC45 type=non-native eps=0.002390 sigma=4.154435
pair_coeff 3 88 0.000000e+00 0.000000e+00 4.009755e+04 # CA2-CA46 type=non-native eps=0.002390 sigma=4.000000
pair_coeff 3 89 0.000000e+00 0.000000e+00 4.009755e+04 # CA2-SC46 type=non-native eps=0.002390 sigma=4.000000
pair_coeff 3 90 0.000000e+00 0.000000e+00 4.009755e+04 # CA2-CA47 type=non-native eps=0.002390 sigma=4.000000
pair_coeff 3 91 0.000000e+00 0.000000e+00 4.009755e+04 # CA2-SC47 type=non-native eps=0.002390 sigma=4.000000
pair_coeff 3 92 0.000000e+00 0.000000e+00 4.009755e+04 # CA2-CA48 type=non-native eps=0.002390 sigma=4.000000
pair_coeff 3 93 0.000000e+00 0.000000e+00 6.317440e+04 # CA2-SC48 type=non-native eps=0.002390 sigma=4.154435
pair_coeff 3 94 0.000000e+00 0.000000e+00 4.009755e+04 # CA2-CA49 type=non-native eps=0.002390 sigma=4.000000
pair_coeff 3 95 0.000000e+00 0.000000e+00 2.286802e+04 # CA2-SC49 type=non-native eps=0.002390 sigma=3.817121
pair_coeff 3 96 0.000000e+00 0.000000e+00 4.009755e+04 # CA2-CA50 type=non-native eps=0.002390 sigma=4.000000
pair_coeff 3 97 0.000000e+00 0.000000e+00 1.085818e+04 # CA2-SC50 type=non-native eps=0.002390 sigma=3.587401
pair_coeff 3 98 0.000000e+00 0.000000e+00 4.009755e+04 # CA2-CA51 type=non-native eps=0.002390 sigma=4.000000
pair_coeff 3 99 0.000000e+00 0.000000e+00 6.317440e+04 # CA2-SC51 type=non-native eps=0.002390 sigma=4.154435
pair_coeff 3 100 0.000000e+00 0.000000e+00 4.009755e+04 # CA2-CA52 type=non-native eps=0.002390 sigma=4.000000
pair_coeff 3 101 0.000000e+00 0.000000e+00 4.009755e+04 # CA2-SC52 type=non-native eps=0.002390 sigma=4.000000
pair_coeff 3 102 0.000000e+00 0.000000e+00 4.009755e+04 # CA2-CA53 type=non-native eps=0.002390 sigma=4.000000
pair_coeff 3 103 0.000000e+00 0.000000e+00 6.317440e+04 # CA2-SC53 type=non-native eps=0.002390 sigma=4.154435
pair_coeff 3 104 0.000000e+00 0.000000e+00 4.009755e+04 # CA2-CA54 type=non-native eps=0.002390 sigma=4.000000
pair_coeff 3 105 0.000000e+00 0.000000e+00 1.293687e+05 # CA2-SC54 type=non-native eps=0.002390 sigma=4.410142
pair_coeff 3 106 0.000000e+00 0.000000e+00 4.009755e+04 # CA2-CA55 type=non-native eps=0.002390 sigma=4.000000
pair_coeff 3 107 0.000000e+00 0.000000e+00 1.293687e+05 # CA2-SC55 type=non-native eps=0.002390 sigma=4.410142
pair_coeff 3 108 0.000000e+00 0.000000e+00 4.009755e+04 # CA2-CA56 type=non-native eps=0.002390 sigma=4.000000
pair_coeff 3 109 -1.789837e+04 0.000000e+00 8.377398e+08 # CA2-SC56 type=native eps=0.095600 sigma=6.738361
pair_coeff 3 110 0.000000e+00 0.000000e+00 4.009755e+04 # CA2-CA57 type=non-native eps=0.002390 sigma=4.000000
pair_coeff 3 111 0.000000e+00 0.000000e+00 1.737309e+05 # CA2-SC57 type=non-native eps=0.002390 sigma=4.519842
pair_coeff 3 112 0.000000e+00 0.000000e+00 4.009755e+04 # CA2-CA58 type=non-native eps=0.002390 sigma=4.000000
pair_coeff 3 113 0.000000e+00 0.000000e+00 2.286802e+04 # CA2-SC58 type=non-native eps=0.002390 sigma=3.817121
pair_coeff 3 114 0.000000e+00 0.000000e+00 4.009755e+04 # CA2-CA59 type=non-native eps=0.002390 sigma=4.000000
pair_coeff 3 115 0.000000e+00 0.000000e+00 1.085818e+04 # CA2-SC59 type=non-native eps=0.002390 sigma=3.587401
pair_coeff 3 116 0.000000e+00 0.000000e+00 4.009755e+04 # CA2-CA60 type=non-native eps=0.002390 sigma=4.000000
pair_coeff 3 117 0.000000e+00 0.000000e+00 2.286802e+04 # CA2-SC60 type=non-native eps=0.002390 sigma=3.817121
pair_coeff 3 118 0.000000e+00 0.000000e+00 4.009755e+04 # CA2-CA61 type=non-native eps=0.002390 sigma=4.000000
pair_coeff 3 119 0.000000e+00 0.000000e+00 4.009755e+04 # CA2-SC61 type=non-native eps=0.002390 sigma=4.000000
pair_coeff 3 120 0.000000e+00 0.000000e+00 4.009755e+04 # CA2-CA62 type=non-native eps=0.002390 sigma=4.000000
pair_coeff 3 121 0.000000e+00 0.000000e+00 3.442571e+03 # CA2-SC62 type=non-native eps=0.002390 sigma=3.259921
pair_coeff 3 122 0.000000e+00 0.000000e+00 4.009755e+04 # CA2-CA63 type=non-native eps=0.002390 sigma=4.000000
pair_coeff 3 123 0.000000e+00 0.000000e+00 4.009755e+04 # CA2-CA64 type=non-native eps=0.002390 sigma=4.000000
pair_coeff 3 124 0.000000e+00 0.000000e+00 4.009755e+04 # CA2-SC64 type=non-native eps=0.002390 sigma=4.000000
pair_coeff 3 125 0.000000e+00 0.000000e+00 4.009755e+04 # CA2-CA65 type=non-native eps=0.002390 sigma=4.000000
pair_coeff 3 126 0.000000e+00 0.000000e+00 4.009755e+04 # CA2-CA66 type=non-native eps=0.002390 sigma=4.000000
pair_coeff 3 127 0.000000e+00 0.000000e+00 6.317440e+04 # CA2-SC66 type=non-native eps=0.002390 sigma=4.154435
pair_coeff 3 128 0.000000e+00 0.000000e+00 4.009755e+04 # CA2-CA67 type=non-native eps=0.002390 sigma=4.000000
pair_coeff 3 129 0.000000e+00 0.000000e+00 6.317440e+04 # CA2-SC67 type=non-native eps=0.002390 sigma=4.154435
pair_coeff 3 130 0.000000e+00 0.000000e+00 4.009755e+04 # CA2-CA68 type=non-native eps=0.002390 sigma=4.000000
pair_coeff 3 131 0.000000e+00 0.000000e+00 1.085818e+04 # CA2-SC68 type=non-native eps=0.002390 sigma=3.587401
pair_coeff 3 132 0.000000e+00 0.000000e+00 4.009755e+04 # CA2-CA69 type=non-native eps=0.002390 sigma=4.000000
pair_coeff 3 133 0.000000e+00 0.000000e+00 6.317440e+04 # CA2-SC69 type=non-native eps=0.002390 sigma=4.154435
pair_coeff 3 134 0.000000e+00 0.000000e+00 4.009755e+04 # CA2-CA70 type=non-native eps=0.002390 sigma=4.000000
pair_coeff 3 135 0.000000e+00 0.000000e+00 1.293687e+05 # CA2-SC70 type=non-native eps=0.002390 sigma=4.410142
pair_coeff 3 136 0.000000e+00 0.000000e+00 4.009755e+04 # CA2-CA71 type=non-native eps=0.002390 sigma=4.000000
pair_coeff 3 137 0.000000e+00 0.000000e+00 6.317440e+04 # CA2-SC71 type=non-native eps=0.002390 sigma=4.154435
pair_coeff 3 138 0.000000e+00 0.000000e+00 4.009755e+04 # CA2-CA72 type=non-native eps=0.002390 sigma=4.000000
pair_coeff 3 139 0.000000e+00 0.000000e+00 4.009755e+04 # CA2-SC72 type=non-native eps=0.002390 sigma=4.000000
pair_coeff 3 140 0.000000e+00 0.000000e+00 4.009755e+04 # CA2-CA73 type=non-native eps=0.002390 sigma=4.000000
pair_coeff 3 141 0.000000e+00 0.000000e+00 1.293687e+05 # CA2-SC73 type=non-native eps=0.002390 sigma=4.410142
pair_coeff 3 142 0.000000e+00 0.000000e+00 4.009755e+04 # CA2-CA74 type=non-native eps=0.002390 sigma=4.000000
pair_coeff 3 143 -1.365382e+04 0.000000e+00 4.875179e+08 # CA2-SC74 type=native eps=0.095600 sigma=6.441115
pair_coeff 3 144 -2.857986e+03 0.000000e+00 3.417609e+07 # CA2-CA75 type=native eps=0.059750 sigma=5.367623
pair_coeff 3 145 -3.734339e+03 0.000000e+00 5.834849e+07 # CA2-SC75 type=native eps=0.059750 sigma=5.612301
pair_coeff 3 146 0.000000e+00 0.000000e+00 4.009755e+04 # CA2-CA76 type=non-native eps=0.002390 sigma=4.000000
pair_coeff 3 147 0.000000e+00 0.000000e+00 2.286802e+04 # CA2-SC76 type=non-native eps=0.002390 sigma=3.817121
pair_coeff 3 148 0.000000e+00 0.000000e+00 4.009755e+04 # CA2-CA77 type=non-native eps=0.002390 sigma=4.000000
pair_coeff 3 149 0.000000e+00 0.000000e+00 4.009755e+04 # CA2-SC77 type=non-native eps=0.002390 sigma=4.000000
pair_coeff 3 150 0.000000e+00 0.000000e+00 4.009755e+04 # CA2-CA78 type=non-native eps=0.002390 sigma=4.000000
pair_coeff 3 151 0.000000e+00 0.000000e+00 2.286802e+04 # CA2-SC78 type=non-native eps=0.002390 sigma=3.817121
pair_coeff 3 152 0.000000e+00 0.000000e+00 4.009755e+04 # CA2-CA79 type=non-native eps=0.002390 sigma=4.000000
pair_coeff 3 153 0.000000e+00 0.000000e+00 2.286802e+04 # CA2-SC79 type=non-native eps=0.002390 sigma=3.817121
pair_coeff 3 154 0.000000e+00 0.000000e+00 4.009755e+04 # CA2-CA80 type=non-native eps=0.002390 sigma=4.000000
pair_coeff 3 155 0.000000e+00 0.000000e+00 6.317440e+04 # CA2-SC80 type=non-native eps=0.002390 sigma=4.154435
pair_coeff 3 156 0.000000e+00 0.000000e+00 4.009755e+04 # CA2-CA81 type=non-native eps=0.002390 sigma=4.000000
pair_coeff 3 157 0.000000e+00 0.000000e+00 4.009755e+04 # CA2-SC81 type=non-native eps=0.002390 sigma=4.000000
pair_coeff 3 158 0.000000e+00 0.000000e+00 4.009755e+04 # CA2-CA82 type=non-native eps=0.002390 sigma=4.000000
pair_coeff 3 159 0.000000e+00 0.000000e+00 2.286802e+04 # CA2-SC82 type=non-native eps=0.002390 sigma=3.817121
pair_coeff 3 160 0.000000e+00 0.000000e+00 4.009755e+04 # CA2-CA83 type=non-native eps=0.002390 sigma=4.000000
pair_coeff 3 161 0.000000e+00 0.000000e+00 4.009755e+04 # CA2-CA84 type=non-native eps=0.002390 sigma=4.000000
pair_coeff 3 162 0.000000e+00 0.000000e+00 1.293687e+05 # CA2-SC84 type=non-native eps=0.002390 sigma=4.410142
pair_coeff 3 163 0.000000e+00 0.000000e+00 4.009755e+04 # CA2-CA85 type=non-native eps=0.002390 sigma=4.000000
pair_coeff 3 164 0.000000e+00 0.000000e+00 6.317440e+04 # CA2-SC85 type=non-native eps=0.002390 sigma=4.154435
pair_coeff 3 165 0.000000e+00 0.000000e+00 4.009755e+04 # CA2-CA86 type=non-native eps=0.002390 sigma=4.000000
pair_coeff 3 166 0.000000e+00 0.000000e+00 1.085818e+04 # CA2-SC86 type=non-native eps=0.002390 sigma=3.587401
pair_coeff 3 167 0.000000e+00 0.000000e+00 4.009755e+04 # CA2-CA87 type=non-native eps=0.002390 sigma=4.000000
pair_coeff 3 168 0.000000e+00 0.000000e+00 1.293687e+05 # CA2-SC87 type=non-native eps=0.002390 sigma=4.410142
pair_coeff 3 169 0.000000e+00 0.000000e+00 4.009755e+04 # CA2-CA88 type=non-native eps=0.002390 sigma=4.000000
pair_coeff 3 170 0.000000e+00 0.000000e+00 6.317440e+04 # CA2-SC88 type=non-native eps=0.002390 sigma=4.154435
pair_coeff 3 171 0.000000e+00 0.000000e+00 4.009755e+04 # CA2-CA89 type=non-native eps=0.002390 sigma=4.000000
pair_coeff 3 172 0.000000e+00 0.000000e+00 4.009755e+04 # CA2-SC89 type=non-native eps=0.002390 sigma=4.000000
pair_coeff 3 173 0.000000e+00 0.000000e+00 4.009755e+04 # CA2-CA90 type=non-native eps=0.002390 sigma=4.000000
pair_coeff 3 174 0.000000e+00 0.000000e+00 4.009755e+04 # CA2-SC90 type=non-native eps=0.002390 sigma=4.000000
pair_coeff 3 175 0.000000e+00 0.000000e+00 4.009755e+04 # CA2-CA91 type=non-native eps=0.002390 sigma=4.000000
pair_coeff 3 176 0.000000e+00 0.000000e+00 4.009755e+04 # CA2-SC91 type=non-native eps=0.002390 sigma=4.000000
pair_coeff 3 177 0.000000e+00 0.000000e+00 4.009755e+04 # CA2-CA92 type=non-native eps=0.002390 sigma=4.000000
pair_coeff 3 178 0.000000e+00 0.000000e+00 4.009755e+04 # CA2-SC92 type=non-native eps=0.002390 sigma=4.000000
pair_coeff 3 179 0.000000e+00 0.000000e+00 4.009755e+04 # CA2-CA93 type=non-native eps=0.002390 sigma=4.000000
pair_coeff 3 180 0.000000e+00 0.000000e+00 4.009755e+04 # CA2-SC93 type=non-native eps=0.002390 sigma=4.000000
pair_coeff 3 181 0.000000e+00 0.000000e+00 4.009755e+04 # CA2-CA94 type=non-native eps=0.002390 sigma=4.000000
pair_coeff 3 182 0.000000e+00 0.000000e+00 4.009755e+04 # CA2-SC94 type=non-native eps=0.002390 sigma=4.000000
pair_coeff 3 183 0.000000e+00 0.000000e+00 4.009755e+04 # CA2-CA95 type=non-native eps=0.002390 sigma=4.000000
pair_coeff 3 184 0.000000e+00 0.000000e+00 4.009755e+04 # CA2-CA96 type=non-native eps=0.002390 sigma=4.000000
pair_coeff 3 185 0.000000e+00 0.000000e+00 2.264320e+05 # CA2-SC96 type=non-native eps=0.002390 sigma=4.620741
pair_coeff 4 4 0.000000e+00 0.000000e+00 4.009755e+04 # SC2-SC2 type=non-native eps=0.002390 sigma=4.000000
pair_coeff 4 5 0.000000e+00 0.000000e+00 4.009755e+04 # SC2-CA3 type=non-native eps=0.002390 sigma=4.000000
pair_coeff 4 6 0.000000e+00 0.000000e+00 4.009755e+04 # SC2-SC3 type=non-native eps=0.002390 sigma=4.000000
pair_coeff 4 7 0.000000e+00 0.000000e+00 4.009755e+04 # SC2-CA4 type=non-native eps=0.002390 sigma=4.000000
pair_coeff 4 8 0.000000e+00 0.000000e+00 4.009755e+04 # SC2-SC4 type=non-native eps=0.002390 sigma=4.000000
pair_coeff 4 9 0.000000e+00 0.000000e+00 4.009755e+04 # SC2-CA5 type=non-native eps=0.002390 sigma=4.000000
pair_coeff 4 10 0.000000e+00 0.000000e+00 4.009755e+04 # SC2-CA6 type=non-native eps=0.002390 sigma=4.000000
pair_coeff 4 11 0.000000e+00 0.000000e+00 4.009755e+04 # SC2-SC6 type=non-native eps=0.002390 sigma=4.000000
pair_coeff 4 12 0.000000e+00 0.000000e+00 4.009755e+04 # SC2-CA7 type=non-native eps=0.002390 sigma=4.000000
pair_coeff 4 13 0.000000e+00 0.000000e+00 4.009755e+04 # SC2-SC7 type=non-native eps=0.002390 sigma=4.000000
pair_coeff 4 14 0.000000e+00 0.000000e+00 4.009755e+04 # SC2-CA8 type=non-native eps=0.002390 sigma=4.000000
pair_coeff 4 15 0.000000e+00 0.000000e+00 4.009755e+04 # SC2-SC8 type=non-native eps=0.002390 sigma=4.000000
pair_coeff 4 16 0.000000e+00 0.000000e+00 4.009755e+04 # SC2-CA9 type=non-native eps=0.002390 sigma=4.000000
pair_coeff 4 17 0.000000e+00 0.000000e+00 6.317440e+04 # SC2-SC9 type=non-native eps=0.002390 sigma=4.154435
pair_coeff 4 18 0.000000e+00 0.000000e+00 4.009755e+04 # SC2-CA10 type=non-native eps=0.002390 sigma=4.000000
pair_coeff 4 19 0.000000e+00 0.000000e+00 4.009755e+04 # SC2-SC10 type=non-native eps=0.002390 sigma=4.000000
pair_coeff 4 20 0.000000e+00 0.000000e+00 4.009755e+04 # SC2-CA11 type=non-native eps=0.002390 sigma=4.000000
pair_coeff 4 21 0.000000e+00 0.000000e+00 6.317440e+04 # SC2-SC11 type=non-native eps=0.002390 sigma=4.154435
pair_coeff 4 22 0.000000e+00 0.000000e+00 4.009755e+04 # SC2-CA12 type=non-native eps=0.002390 sigma=4.000000
pair_coeff 4 23 0.000000e+00 0.000000e+00 4.009755e+04 # SC2-SC12 type=non-native eps=0.002390 sigma=4.000000
pair_coeff 4 24 0.000000e+00 0.000000e+00 4.009755e+04 # SC2-CA13 type=non-native eps=0.002390 sigma=4.000000
pair_coeff 4 25 0.000000e+00 0.000000e+00 6.317440e+04 # SC2-SC13 type=non-native eps=0.002390 sigma=4.154435
pair_coeff 4 26 0.000000e+00 0.000000e+00 4.009755e+04 # SC2-CA14 type=non-native eps=0.002390 sigma=4.000000
pair_coeff 4 27 0.000000e+00 0.000000e+00 4.009755e+04 # SC2-SC14 type=non-native eps=0.002390 sigma=4.000000
pair_coeff 4 28 0.000000e+00 0.000000e+00 4.009755e+04 # SC2-CA15 type=non-native eps=0.002390 sigma=4.000000
pair_coeff 4 29 0.000000e+00 0.000000e+00 2.286802e+04 # SC2-SC15 type=non-native eps=0.002390 sigma=3.817121
pair_coeff 4 30 0.000000e+00 0.000000e+00 4.009755e+04 # SC2-CA16 type=non-native eps=0.002390 sigma=4.000000
pair_coeff 4 31 0.000000e+00 0.000000e+00 2.286802e+04 # SC2-SC16 type=non-native eps=0.002390 sigma=3.817121
pair_coeff 4 32 0.000000e+00 0.000000e+00 4.009755e+04 # SC2-CA17 type=non-native eps=0.002390 sigma=4.000000
pair_coeff 4 33 0.000000e+00 0.000000e+00 4.009755e+04 # SC2-SC17 type=non-native eps=0.002390 sigma=4.000000
pair_coeff 4 34 0.000000e+00 0.000000e+00 4.009755e+04 # SC2-CA18 type=non-native eps=0.002390 sigma=4.000000
pair_coeff 4 35 0.000000e+00 0.000000e+00 4.009755e+04 # SC2-SC18 type=non-native eps=0.002390 sigma=4.000000
pair_coeff 4 36 0.000000e+00 0.000000e+00 4.009755e+04 # SC2-CA19 type=non-native eps=0.002390 sigma=4.000000
pair_coeff 4 37 0.000000e+00 0.000000e+00 4.009755e+04 # SC2-SC19 type=non-native eps=0.002390 sigma=4.000000
pair_coeff 4 38 0.000000e+00 0.000000e+00 4.009755e+04 # SC2-CA20 type=non-native eps=0.002390 sigma=4.000000
pair_coeff 4 39 0.000000e+00 0.000000e+00 4.009755e+04 # SC2-SC20 type=non-native eps=0.002390 sigma=4.000000
pair_coeff 4 40 0.000000e+00 0.000000e+00 4.009755e+04 # SC2-CA21 type=non-native eps=0.002390 sigma=4.000000
pair_coeff 4 41 0.000000e+00 0.000000e+00 1.293687e+05 # SC2-SC21 type=non-native eps=0.002390 sigma=4.410142
pair_coeff 4 42 0.000000e+00 0.000000e+00 4.009755e+04 # SC2-CA22 type=non-native eps=0.002390 sigma=4.000000
pair_coeff 4 43 0.000000e+00 0.000000e+00 4.009755e+04 # SC2-CA23 type=non-native eps=0.002390 sigma=4.000000
pair_coeff 4 44 0.000000e+00 0.000000e+00 6.317440e+04 # SC2-SC23 type=non-native eps=0.002390 sigma=4.154435
pair_coeff 4 45 0.000000e+00 0.000000e+00 4.009755e+04 # SC2-CA24 type=non-native eps=0.002390 sigma=4.000000
pair_coeff 4 46 0.000000e+00 0.000000e+00 6.317440e+04 # SC2-SC24 type=non-native eps=0.002390 sigma=4.154435
pair_coeff 4 47 0.000000e+00 0.000000e+00 4.009755e+04 # SC2-CA25 type=non-native eps=0.002390 sigma=4.000000
pair_coeff 4 48 -3.182892e+04 0.000000e+00 1.059707e+09 # SC2-SC25 type=native eps=0.239000 sigma=6.366474
pair_coeff 4 49 0.000000e+00 0.000000e+00 4.009755e+04 # SC2-CA26 type=non-native eps=0.002390 sigma=4.000000
pair_coeff 4 50 0.000000e+00 0.000000e+00 4.009755e+04 # SC2-SC26 type=non-native eps=0.002390 sigma=4.000000
pair_coeff 4 51 0.000000e+00 0.000000e+00 4.009755e+04 # SC2-CA27 type=non-native eps=0.002390 sigma=4.000000
pair_coeff 4 52 0.000000e+00 0.000000e+00 4.009755e+04 # SC2-SC27 type=non-native eps=0.002390 sigma=4.000000
pair_coeff 4 53 0.000000e+00 0.000000e+00 4.009755e+04 # SC2-CA28 type=non-native eps=0.002390 sigma=4.000000
pair_coeff 4 54 -3.575682e+04 0.000000e+00 1.337395e+09 # SC2-SC28 type=native eps=0.239000 sigma=6.491153
pair_coeff 4 55 0.000000e+00 0.000000e+00 4.009755e+04 # SC2-CA29 type=non-native eps=0.002390 sigma=4.000000
pair_coeff 4 56 -1.692983e+04 0.000000e+00 3.747637e+08 # SC2-SC29 type=native eps=0.191200 sigma=5.947792
pair_coeff 4 57 0.000000e+00 0.000000e+00 4.009755e+04 # SC2-CA30 type=non-native eps=0.002390 sigma=4.000000
pair_coeff 4 58 0.000000e+00 0.000000e+00 6.317440e+04 # SC2-SC30 type=non-native eps=0.002390 sigma=4.154435
pair_coeff 4 59 0.000000e+00 0.000000e+00 4.009755e+04 # SC2-CA31 type=non-native eps=0.002390 sigma=4.000000
pair_coeff 4 60 0.000000e+00 0.000000e+00 4.009755e+04 # SC2-SC31 type=non-native eps=0.002390 sigma=4.000000
pair_coeff 4 61 0.000000e+00 0.000000e+00 4.009755e+04 # SC2-CA32 type=non-native eps=0.002390 sigma=4.000000
pair_coeff 4 62 0.000000e+00 0.000000e+00 4.009755e+04 # SC2-SC32 type=non-native eps=0.002390 sigma=4.000000
pair_coeff 4 63 0.000000e+00 0.000000e+00 4.009755e+04 # SC2-CA33 type=non-native eps=0.002390 sigma=4.000000
pair_coeff 4 64 0.000000e+00 0.000000e+00 4.009755e+04 # SC2-SC33 type=non-native eps=0.002390 sigma=4.000000
pair_coeff 4 65 0.000000e+00 0.000000e+00 4.009755e+04 # SC2-CA34 type=non-native eps=0.002390 sigma=4.000000
pair_coeff 4 66 0.000000e+00 0.000000e+00 6.317440e+04 # SC2-SC34 type=non-native eps=0.002390 sigma=4.154435
pair_coeff 4 67 0.000000e+00 0.000000e+00 4.009755e+04 # SC2-CA35 type=non-native eps=0.002390 sigma=4.000000
pair_coeff 4 68 0.000000e+00 0.000000e+00 4.009755e+04 # SC2-SC35 type=non-native eps=0.002390 sigma=4.000000
pair_coeff 4 69 0.000000e+00 0.000000e+00 4.009755e+04 # SC2-CA36 type=non-native eps=0.002390 sigma=4.000000
pair_coeff 4 70 0.000000e+00 0.000000e+00 6.317440e+04 # SC2-SC36 type=non-native eps=0.002390 sigma=4.154435
pair_coeff 4 71 0.000000e+00 0.000000e+00 4.009755e+04 # SC2-CA37 type=non-native eps=0.002390 sigma=4.000000
pair_coeff 4 72 0.000000e+00 0.000000e+00 1.737309e+05 # SC2-SC37 type=non-native eps=0.002390 sigma=4.519842
pair_coeff 4 73 0.000000e+00 0.000000e+00 4.009755e+04 # SC2-CA38 type=non-native eps=0.002390 sigma=4.000000
pair_coeff 4 74 0.000000e+00 0.000000e+00 4.009755e+04 # SC2-CA39 type=non-native eps=0.002390 sigma=4.000000
pair_coeff 4 75 0.000000e+00 0.000000e+00 2.286802e+04 # SC2-SC39 type=non-native eps=0.002390 sigma=3.817121
pair_coeff 4 76 0.000000e+00 0.000000e+00 4.009755e+04 # SC2-CA40 type=non-native eps=0.002390 sigma=4.000000
pair_coeff 4 77 0.000000e+00 0.000000e+00 4.009755e+04 # SC2-SC40 type=non-native eps=0.002390 sigma=4.000000
pair_coeff 4 78 0.000000e+00 0.000000e+00 4.009755e+04 # SC2-CA41 type=non-native eps=0.002390 sigma=4.000000
pair_coeff 4 79 0.000000e+00 0.000000e+00 2.286802e+04 # SC2-SC41 type=non-native eps=0.002390 sigma=3.817121
pair_coeff 4 80 0.000000e+00 0.000000e+00 4.009755e+04 # SC2-CA42 type=non-native eps=0.002390 sigma=4.000000
pair_coeff 4 81 0.000000e+00 0.000000e+00 6.317440e+04 # SC2-SC42 type=non-native eps=0.002390 sigma=4.154435
pair_coeff 4 82 0.000000e+00 0.000000e+00 4.009755e+04 # SC2-CA43 type=non-native eps=0.002390 sigma=4.000000
pair_coeff 4 83 0.000000e+00 0.000000e+00 4.009755e+04 # SC2-SC43 type=non-native eps=0.002390 sigma=4.000000
pair_coeff 4 84 0.000000e+00 0.000000e+00 4.009755e+04 # SC2-CA44 type=non-native eps=0.002390 sigma=4.000000
pair_coeff 4 85 0.000000e+00 0.000000e+00 4.009755e+04 # SC2-SC44 type=non-native eps=0.002390 sigma=4.000000
pair_coeff 4 86 0.000000e+00 0.000000e+00 4.009755e+04 # SC2-CA45 type=non-native eps=0.002390 sigma=4.000000
pair_coeff 4 87 0.000000e+00 0.000000e+00 6.317440e+04 # SC2-SC45 type=non-native eps=0.002390 sigma=4.154435
pair_coeff 4 88 0.000000e+00 0.000000e+00 4.009755e+04 # SC2-CA46 type=non-native eps=0.002390 sigma=4.000000
pair_coeff 4 89 0.000000e+00 0.000000e+00 4.009755e+04 # SC2-SC46 type=non-native eps=0.002390 sigma=4.000000
pair_coeff 4 90 0.000000e+00 0.000000e+00 4.009755e+04 # SC2-CA47 type=non-native eps=0.002390 sigma=4.000000
pair_coeff 4 91 0.000000e+00 0.000000e+00 4.009755e+04 # SC2-SC47 type=non-native eps=0.002390 sigma=4.000000
pair_coeff 4 92 0.000000e+00 0.000000e+00 4.009755e+04 # SC2-CA48 type=non-native eps=0.002390 sigma=4.000000
pair_coeff 4 93 0.000000e+00 0.000000e+00 6.317440e+04 # SC2-SC48 type=non-native eps=0.002390 sigma=4.154435
pair_coeff 4 94 0.000000e+00 0.000000e+00 4.009755e+04 # SC2-CA49 type=non-native eps=0.002390 sigma=4.000000
pair_coeff 4 95 0.000000e+00 0.000000e+00 2.286802e+04 # SC2-SC49 type=non-native eps=0.002390 sigma=3.817121
pair_coeff 4 96 0.000000e+00 0.000000e+00 4.009755e+04 # SC2-CA50 type=non-native eps=0.002390 sigma=4.000000
pair_coeff 4 97 0.000000e+00 0.000000e+00 1.085818e+04 # SC2-SC50 type=non-native eps=0.002390 sigma=3.587401
pair_coeff 4 98 0.000000e+00 0.000000e+00 4.009755e+04 # SC2-CA51 type=non-native eps=0.002390 sigma=4.000000
pair_coeff 4 99 0.000000e+00 0.000000e+00 6.317440e+04 # SC2-SC51 type=non-native eps=0.002390 sigma=4.154435
pair_coeff 4 100 0.000000e+00 0.000000e+00 4.009755e+04 # SC2-CA52 type=non-native eps=0.002390 sigma=4.000000
pair_coeff 4 101 0.000000e+00 0.000000e+00 4.009755e+04 # SC2-SC52 type=non-native eps=0.002390 sigma=4.000000
pair_coeff 4 102 0.000000e+00 0.000000e+00 4.009755e+04 # SC2-CA53 type=non-native eps=0.002390 sigma=4.000000
pair_coeff 4 103 0.000000e+00 0.000000e+00 6.317440e+04 # SC2-SC53 type=non-native eps=0.002390 sigma=4.154435
pair_coeff 4 104 0.000000e+00 0.000000e+00 4.009755e+04 # SC2-CA54 type=non-native eps=0.002390 sigma=4.000000
pair_coeff 4 105 0.000000e+00 0.000000e+00 1.293687e+05 # SC2-SC54 type=non-native eps=0.002390 sigma=4.410142
pair_coeff 4 106 0.000000e+00 0.000000e+00 4.009755e+04 # SC2-CA55 type=non-native eps=0.002390 sigma=4.000000
pair_coeff 4 107 0.000000e+00 0.000000e+00 1.293687e+05 # SC2-SC55 type=non-native eps=0.002390 sigma=4.410142
pair_coeff 4 108 0.000000e+00 0.000000e+00 4.009755e+04 # SC2-CA56 type=non-native eps=0.002390 sigma=4.000000
pair_coeff 4 109 -4.751890e+03 0.000000e+00 3.936621e+07 # SC2-SC56 type=native eps=0.143400 sigma=5.049107
pair_coeff 4 110 0.000000e+00 0.000000e+00 4.009755e+04 # SC2-CA57 type=non-native eps=0.002390 sigma=4.000000
pair_coeff 4 111 0.000000e+00 0.000000e+00 1.737309e+05 # SC2-SC57 type=non-native eps=0.002390 sigma=4.519842
pair_coeff 4 112 0.000000e+00 0.000000e+00 4.009755e+04 # SC2-CA58 type=non-native eps=0.002390 sigma=4.000000
pair_coeff 4 113 0.000000e+00 0.000000e+00 2.286802e+04 # SC2-SC58 type=non-native eps=0.002390 sigma=3.817121
pair_coeff 4 114 0.000000e+00 0.000000e+00 4.009755e+04 # SC2-CA59 type=non-native eps=0.002390 sigma=4.000000
pair_coeff 4 115 0.000000e+00 0.000000e+00 1.085818e+04 # SC2-SC59 type=non-native eps=0.002390 sigma=3.587401
pair_coeff 4 116 0.000000e+00 0.000000e+00 4.009755e+04 # SC2-CA60 type=non-native eps=0.002390 sigma=4.000000
pair_coeff 4 117 0.000000e+00 0.000000e+00 2.286802e+04 # SC2-SC60 type=non-native eps=0.002390 sigma=3.817121
pair_coeff 4 118 0.000000e+00 0.000000e+00 4.009755e+04 # SC2-CA61 type=non-native eps=0.002390 sigma=4.000000
pair_coeff 4 119 0.000000e+00 0.000000e+00 4.009755e+04 # SC2-SC61 type=non-native eps=0.002390 sigma=4.000000
pair_coeff 4 120 0.000000e+00 0.000000e+00 4.009755e+04 # SC2-CA62 type=non-native eps=0.002390 sigma=4.000000
pair_coeff 4 121 0.000000e+00 0.000000e+00 3.442571e+03 # SC2-SC62 type=non-native eps=0.002390 sigma=3.259921
pair_coeff 4 122 0.000000e+00 0.000000e+00 4.009755e+04 # SC2-CA63 type=non-native eps=0.002390 sigma=4.000000
pair_coeff 4 123 0.000000e+00 0.000000e+00 4.009755e+04 # SC2-CA64 type=non-native eps=0.002390 sigma=4.000000
pair_coeff 4 124 0.000000e+00 0.000000e+00 4.009755e+04 # SC2-SC64 type=non-native eps=0.002390 sigma=4.000000
pair_coeff 4 125 0.000000e+00 0.000000e+00 4.009755e+04 # SC2-CA65 type=non-native eps=0.002390 sigma=4.000000
pair_coeff 4 126 0.000000e+00 0.000000e+00 4.009755e+04 # SC2-CA66 type=non-native eps=0.002390 sigma=4.000000
pair_coeff 4 127 0.000000e+00 0.000000e+00 6.317440e+04 # SC2-SC66 type=non-native eps=0.002390 sigma=4.154435
pair_coeff 4 128 0.000000e+00 0.000000e+00 4.009755e+04 # SC2-CA67 type=non-native eps=0.002390 sigma=4.000000
pair_coeff 4 129 0.000000e+00 0.000000e+00 6.317440e+04 # SC2-SC67 type=non-native eps=0.002390 sigma=4.154435
pair_coeff 4 130 0.000000e+00 0.000000e+00 4.009755e+04 # SC2-CA68 type=non-native eps=0.002390 sigma=4.000000
pair_coeff 4 131 0.000000e+00 0.000000e+00 1.085818e+04 # SC2-SC68 type=non-native eps=0.002390 sigma=3.587401
pair_coeff 4 132 0.000000e+00 0.000000e+00 4.009755e+04 # SC2-CA69 type=non-native eps=0.002390 sigma=4.000000
pair_coeff 4 133 0.000000e+00 0.000000e+00 6.317440e+04 # SC2-SC69 type=non-native eps=0.002390 sigma=4.154435
pair_coeff 4 134 0.000000e+00 0.000000e+00 4.009755e+04 # SC2-CA70 type=non-native eps=0.002390 sigma=4.000000
pair_coeff 4 135 0.000000e+00 0.000000e+00 1.293687e+05 # SC2-SC70 type=non-native eps=0.002390 sigma=4.410142
pair_coeff 4 136 0.000000e+00 0.000000e+00 4.009755e+04 # SC2-CA71 type=non-native eps=0.002390 sigma=4.000000
pair_coeff 4 137 0.000000e+00 0.000000e+00 6.317440e+04 # SC2-SC71 type=non-native eps=0.002390 sigma=4.154435
pair_coeff 4 138 -3.561608e+04 0.000000e+00 3.980664e+09 # SC2-CA72 type=native eps=0.079667 sigma=7.790343
pair_coeff 4 139 -2.680973e+04 0.000000e+00 1.127764e+09 # SC2-SC72 type=native eps=0.159333 sigma=6.619512
pair_coeff 4 140 -1.548521e+05 0.000000e+00 2.508282e+10 # SC2-CA73 type=native eps=0.239000 sigma=8.287335
pair_coeff 4 141 0.000000e+00 0.000000e+00 1.293687e+05 # SC2-SC73 type=non-native eps=0.002390 sigma=4.410142
pair_coeff 4 142 -2.493657e+03 0.000000e+00 3.252261e+07 # SC2-CA74 type=native eps=0.047800 sigma=5.445818
pair_coeff 4 143 -7.943021e+03 0.000000e+00 1.649885e+08 # SC2-SC74 type=native eps=0.095600 sigma=5.885043
pair_coeff 4 144 -8.751311e+03 0.000000e+00 3.204412e+08 # SC2-CA75 type=native eps=0.059750 sigma=6.468211
pair_coeff 4 145 -1.563284e+04 0.000000e+00 1.022534e+09 # SC2-SC75 type=native eps=0.059750 sigma=7.124892
pair_coeff 4 146 0.000000e+00 0.000000e+00 4.009755e+04 # SC2-CA76 type=non-native eps=0.002390 sigma=4.000000
pair_coeff 4 147 0.000000e+00 0.000000e+00 2.286802e+04 # SC2-SC76 type=non-native eps=0.002390 sigma=3.817121
pair_coeff 4 148 0.000000e+00 0.000000e+00 4.009755e+04 # SC2-CA77 type=non-native eps=0.002390 sigma=4.000000
pair_coeff 4 149 0.000000e+00 0.000000e+00 4.009755e+04 # SC2-SC77 type=non-native eps=0.002390 sigma=4.000000
pair_coeff 4 150 0.000000e+00 0.000000e+00 4.009755e+04 # SC2-CA78 type=non-native eps=0.002390 sigma=4.000000
pair_coeff 4 151 0.000000e+00 0.000000e+00 2.286802e+04 # SC2-SC78 type=non-native eps=0.002390 sigma=3.817121
pair_coeff 4 152 0.000000e+00 0.000000e+00 4.009755e+04 # SC2-CA79 type=non-native eps=0.002390 sigma=4.000000
pair_coeff 4 153 0.000000e+00 0.000000e+00 2.286802e+04 # SC2-SC79 type=non-native eps=0.002390 sigma=3.817121
pair_coeff 4 154 0.000000e+00 0.000000e+00 4.009755e+04 # SC2-CA80 type=non-native eps=0.002390 sigma=4.000000
pair_coeff 4 155 0.000000e+00 0.000000e+00 6.317440e+04 # SC2-SC80 type=non-native eps=0.002390 sigma=4.154435
pair_coeff 4 156 0.000000e+00 0.000000e+00 4.009755e+04 # SC2-CA81 type=non-native eps=0.002390 sigma=4.000000
pair_coeff 4 157 0.000000e+00 0.000000e+00 4.009755e+04 # SC2-SC81 type=non-native eps=0.002390 sigma=4.000000
pair_coeff 4 158 0.000000e+00 0.000000e+00 4.009755e+04 # SC2-CA82 type=non-native eps=0.002390 sigma=4.000000
pair_coeff 4 159 0.000000e+00 0.000000e+00 2.286802e+04 # SC2-SC82 type=non-native eps=0.002390 sigma=3.817121
pair_coeff 4 160 0.000000e+00 0.000000e+00 4.009755e+04 # SC2-CA83 type=non-native eps=0.002390 sigma=4.000000
pair_coeff 4 161 0.000000e+00 0.000000e+00 4.009755e+04 # SC2-CA84 type=non-native eps=0.002390 sigma=4.000000
[...]
 4788000    162.83932    94.850519   -8.0400208    31.297715    35.309324    36.283501 
 4789000    181.74259    94.118492   -7.1170922    26.009887    39.245024    35.980673 
 4790000    178.07967    107.42945   -6.4600017    34.934225    43.543613    35.411608 
 4791000    171.54754    106.24012   -5.8834846    34.926614    38.481083    38.715906 
 4792000    148.57596    99.957515   -5.5863741    30.670424    38.255211    36.618254 
 4793000    144.30844    95.004626    -4.725025     29.31542    36.341979    34.072252 
 4794000    169.98324     96.33891   -5.8656433    30.104432    37.876295    34.223827 
 4795000      173.273    96.511279   -5.9895371    31.048769    37.100098    34.351949 
 4796000    161.54017    95.183535   -7.9833523    36.203567    32.470735    34.492585 
 4797000    169.98927    98.467177     -8.50775    34.045928    39.089894    33.839105 
 4798000    173.98858    90.720272   -6.4715983    30.844002    32.553027    33.794841 
 4799000    167.45402     92.06111   -8.4311238    32.205805    33.320053    34.966376 
 4800000    153.14853    93.290519   -8.5938603    32.296619    35.470842    34.116918 
 4801000    156.10831    92.334431   -6.1046611    28.247813    37.818993    32.372286 
 4802000    152.89314    91.727879   -6.7386394    31.271904    34.019136    33.175478 
 4803000    147.60288    88.365039   -7.0416997    26.519472    38.125648    30.761618 
 4804000    143.46408    88.869315   -5.7052929     25.06597    36.333044    33.175594 
 4805000    161.01337    87.024356   -5.5809237      24.2124    34.610669    33.782212 
 4806000    163.42098    88.398139   -5.8254087    27.536489     32.82826    33.858799 
 4807000    155.53116    95.621264   -4.2179858    29.544583    36.913531    33.381136 
 4808000    159.84971    90.413969    -5.682178    28.980505    32.166879    34.948763 
 4809000    151.00331    99.317357   -4.4607316    29.429986    40.667868    33.680235 
 4810000    151.50168    95.181967   -3.9856437    30.813859    31.343242    37.010508 
 4811000    162.25795    90.652017   -5.0736431    26.950505    32.761237    36.013918 
 4812000    135.80183    93.019697   -4.4488967     24.95362    36.500773      36.0142 
 4813000    156.08695     87.10116   -6.9514859    22.479135    34.084023    37.489489 
 4814000     157.6984    86.813593   -5.7955741    25.718188    30.838323    36.052657 
 4815000    159.07486     95.04777   -5.2780088    29.312797    34.541761     36.47122 
 4816000    153.40905    92.259941   -5.1335777    29.660972    32.107839    35.624708 
 4817000    153.96894    85.362364   -6.4150112    26.320884    31.047402    34.409089 
 4818000    162.09322    99.328096   -6.1218077    32.243665    36.244058    36.962181 
 4819000    142.80796    97.604319   -6.8446195    29.784988    36.509811    38.154139 
 4820000    154.07514    89.230834   -7.1526216    28.752619    33.311758    34.319079 
 4821000    154.46628    95.652303   -4.8889792    32.620089    34.131149    33.790044 
 4822000     154.5491    98.073463     -4.94787    28.298177    43.042437     31.68072 
 4823000    173.90719    96.099024   -5.2132853    32.044279    34.314079    34.953952 
 4824000    170.53506    101.71047   -5.1659511    30.357513    40.014589    36.504316 
 4825000    171.54037    94.614211   -5.1441633    25.753548    39.008234    34.996592 
 4826000    156.09192    99.030404   -5.4423498    29.254996    37.909913    37.307846 
 4827000    159.96338    91.998776    -5.252178    29.713649    30.202721    37.334584 
 4828000     162.8693    93.235698   -5.1716611    29.993729    34.862336    33.551294 
 4829000    148.11062    93.278702    -4.177496    29.484612    36.463756     31.50783 
 4830000     141.9711    93.578576   -5.2309039     32.96846    34.547846    31.293175 
 4831000    149.90467    83.579774   -6.2665628    23.684706     33.78001    32.381621 
 4832000    161.30241    92.031646   -5.1646339    29.016502    34.283426    33.896352 
 4833000    144.98028    86.531771   -6.1463737    26.888336    35.886534    29.903275 
 4834000    151.54508    91.500893   -5.4444731    31.120154    34.033971     31.79124 
 4835000    153.90413    87.011828   -6.3849732    28.407106    33.536526     31.45317 
 4836000    145.49688    93.549142   -7.0349698    32.967939    38.117042    29.499131 
 4837000    148.39647    91.909657   -8.4377472    30.958421    37.320871    32.068112 
 4838000     161.1414    90.924937   -5.6851773    26.821763    38.348113    31.440238 
 4839000     161.6775    93.447368    -7.033779    27.368572    41.696637    31.415938 
 4840000    156.79967    93.906629   -7.4482897    35.022211    34.111265    32.221442 
 4841000    150.95331    99.372634   -6.7555061    30.778483    41.713861    33.635797 
 4842000    166.61526    92.713428   -7.3491148      31.2321    37.130592     31.69985 
 4843000    161.35323    87.991572   -8.5670195    33.623898    33.644061    29.290633 
 4844000    160.58337    92.075457   -7.8351456    32.317262    38.287295    29.306046 
 4845000    167.32862     97.59076   -5.3222426    34.113572    34.700833    34.098598 
 4846000    160.95672    102.17703   -7.1527678    34.732444     40.76648    33.830877 
 4847000    157.00385    89.829007   -8.2380565    27.738764    37.410709     32.91759 
 4848000     152.3819    89.419006   -9.9779317    29.243043    41.433759    28.720137 
 4849000    141.07118    92.485355   -8.0705711    28.021728    39.304369    33.229829 
 4850000    163.24786     86.01227   -8.3618896    27.370975    37.599263    29.403921 
 4851000    159.44219    93.086708   -8.9635735    33.630967    36.008534     32.41078 
 4852000     150.4999    84.509692   -7.6033126    26.135286    32.074817    33.902901 
 4853000    167.73866    81.254614   -7.5170616    26.952876    31.757749    30.061051 
 4854000    176.59059    88.934752   -8.0250709    24.914084    37.600508    34.445231 
 4855000     147.4768    91.752455   -6.3299287    23.349724    40.087599     34.64506 
 4856000    164.13835      97.2377   -7.2943319    30.097968    40.692815    33.741249 
 4857000    171.26974    84.780335   -7.7134859    23.893882    36.579426    32.020514 
 4858000    166.32383    86.805014   -7.0961362    29.637541    35.400509    28.863099 
 4859000    148.49216    102.61389    -6.365811    34.844353    40.485401    33.649948 
 4860000    155.99407    96.169325    -7.428454    29.329032    39.314634    34.954113 
 4861000    163.05203    92.774535   -8.5865067    32.851328    37.652276    30.857437 
 4862000    171.00976     80.35901   -8.0583728    29.231045    29.011703    30.174634 
 4863000    156.09973    76.487843   -9.7517858    27.646776    29.182919    29.409934 
 4864000    166.46523    83.764073    -9.065826    31.988897    32.723142     28.11786 
 4865000    171.60159    78.002774   -10.361556     27.46539    35.137899    25.761041 
 4866000    153.95159    83.621466   -8.9276227    26.953376    36.918744    28.676968 
 4867000    154.94579    82.580576   -9.7352649    27.152848    34.800594    30.362398 
 4868000    152.67163    75.519589   -7.8796623    23.362546    33.340438    26.696267 
 4869000    158.55447    79.383578   -8.6281244    24.740189    36.926562    26.344951 
 4870000    151.06369    83.842057   -6.9065314    28.091324    32.726741    29.930523 
 4871000    154.32285    89.431677   -6.8976607    26.703129    39.282045    30.344165 
 4872000     151.5583    91.517903   -5.7361933    27.095749    36.011763    34.146584 
 4873000    152.78684    89.625242   -9.1122701    25.768369    39.458413     33.51073 
 4874000    159.36086    92.250988   -8.1104928    28.864473    36.771132    34.725876 
 4875000    153.73895     93.81851   -7.2060351    33.539644    35.770863    31.714038 
 4876000    146.00461    96.776289   -5.7181144    29.399225    39.556548     33.53863 
 4877000    153.66238     95.92538   -6.9501704    27.331472    39.596594    35.947484 
 4878000    163.08838    93.074976   -6.6391044    26.488769    40.693686    32.531625 
 4879000    156.30033    96.738223   -5.4865587    28.842803    42.965305    30.416675 
 4880000    170.45971     93.80769    -6.681492    25.095082    40.575834    34.818266 
 4881000    161.38516    97.982734   -5.2614083    31.431024    38.116718      33.6964 
 4882000    166.22291    91.784908   -5.4702844    25.087853    38.729269     33.43807 
 4883000    171.69242    82.302065   -6.2145591    25.061729    32.560684    30.894211 
 4884000    171.48269    83.052946   -8.5797962    24.474445    34.440878     32.71742 
 4885000    152.77008    93.149587   -6.5437323     31.96083    35.544887    32.187601 
 4886000    162.59565    89.816904   -7.4369134    29.938632    34.886836    32.428349 
 4887000     141.5236    86.721421   -7.5584234    27.694363    36.433957    30.151524 
 4888000    148.92803    79.425507   -9.7176362    24.742597    37.322947    27.077599 
 4889000    144.29313    80.737116   -10.707618    23.386065    39.745518     28.31315 
 4890000    164.18274     76.44901   -10.663872    24.803589     34.64042    27.668873 
 4891000    150.32146    83.835073   -9.7686186     22.86001    40.963137    29.780545 
 4892000      177.305    81.683023   -9.9784737    22.647663    40.864498    28.149335 
 4893000    158.97512    86.049937   -10.640495    26.933924    37.599163    32.157346 
 4894000    148.15805     87.53554     -9.28005    25.450398    40.291064    31.074128 
 4895000    159.40372    86.058456   -7.7371776    29.065399    34.785309    29.944926 
 4896000    178.00151    95.598956   -8.2015616    34.871193    41.942942    26.986382 
 4897000    176.05068    94.951961   -8.6299627    35.545246    40.204492    27.832185 
 4898000    169.56876     93.03173   -11.888474    36.725754    40.763867    27.430583 
 4899000    141.17134     82.05716   -10.151133    26.903995    35.141534    30.162763 
 4900000    142.72592    95.772064   -8.9736203    31.826987    40.611234    32.307464 
 4901000    166.99766    79.085548   -10.411291    29.370958    29.865314    30.260566 
 4902000    144.39099    84.794806    -10.06302    31.456827    35.568601    27.832397 
 4903000    156.81321    78.935502   -9.0794987    27.635073     32.74242    27.637508 
 4904000    158.67012      88.0906   -8.4399149    35.293756    33.836376    27.400384 
 4905000    144.60479    91.765803    -7.854947    29.428724    39.681518    30.510507 
 4906000    147.96215    83.366627   -9.2789783    29.394396     32.39302    30.858189 
 4907000    148.23256    85.370097   -9.9031023    31.322482    36.960045    26.990672 
 4908000    150.83892    78.092613   -10.768543    27.022134    36.877464    24.961558 
 4909000    156.87677    88.625668   -11.125374    32.375922    36.040091    31.335029 
 4910000    160.08335     80.31547   -9.5855129    30.749831    31.581375    27.569778 
 4911000    154.51557    80.746815    -11.73852    30.508978    33.350074    28.626283 
 4912000     148.2688    79.509228   -9.4479305    28.572196    31.857145    28.527818 
 4913000    154.04512    85.906923   -9.6875085    29.473909    34.115474    32.005047 
 4914000    146.07503    86.139313   -9.4791216    26.022294    40.716818    28.879323 
 4915000    163.10409    83.621223   -9.2676974    31.730073    34.371529    26.787319 
 4916000     166.2237     83.46083   -11.015392    31.396866    37.203793    25.875563 
 4917000    165.36852    86.139256   -12.702901     33.57559    38.741745    26.524821 
 4918000    169.33569    85.962543   -10.616237    33.328071    34.005475    29.245234 
 4919000    159.21209    89.785095   -11.387568    34.826125     34.91183    31.434708 
 4920000    161.45943    90.496023   -9.4129674    33.085159    35.353662     31.47017 
 4921000     157.8076     95.62587   -9.3955617    34.585385     42.70829    27.727757 
 4922000    162.94156    86.034033   -11.139111    30.977781    37.594609    28.600754 
 4923000    175.39434    79.627229    -9.649828    25.640723    38.274331    25.362003 
 4924000    165.63435     78.86479   -9.5566584    29.903977    32.936759    25.580712 
 4925000    163.69648    80.376782   -7.6148515    28.844784    31.848475    27.298375 
 4926000    155.92987    81.775401     -9.64403    31.658732    30.625575    29.135124 
 4927000    146.70684    81.183732   -7.9533671    26.615968    35.655198    26.865933 
 4928000    149.79984    78.987416   -7.5587248    25.834294    33.695782    27.016064 
 4929000    167.43479     80.38786   -9.2523642     23.05039    36.232876    30.356959 
 4930000    154.23661    84.634613   -8.1968194    31.413092    33.733609    27.684731 
 4931000    136.10866    89.929293   -6.1455359    29.794656    36.113495    30.166678 
 4932000    156.52902    86.950453   -6.7035428    26.416547     34.10582    33.131628 
 4933000    151.97496    93.489375   -7.9018302      31.6829    37.122699    32.585606 
 4934000    165.69772    88.089196   -8.6048266     27.71333    36.102296    32.878397 
 4935000    144.33683    90.713848   -7.5367724    26.114963    37.761584    34.374074 
 4936000    146.63623     77.81694   -9.3109232    22.469674    33.690181    30.968008 
 4937000     157.1723    79.710852   -6.6349289    23.909836    34.704576    27.731368 
 4938000    160.16322    81.974657   -8.3686011    28.379137    33.426332    28.537788 
 4939000    162.25176    78.406881   -10.381502    33.934659    29.723909    25.129814 
 4940000    148.86078    84.082561   -9.5628739    28.722448    35.683073    29.239914 
 4941000    159.65445    78.302097   -8.8744052     28.32125     32.88999    25.965262 
 4942000    162.56473    73.994685    -9.190107     24.47568     34.34601    24.363101 
 4943000    136.41728    83.265489   -8.4942819    31.753351    33.021431    26.984989 
 4944000    147.11446    73.797182   -10.318695    26.776539      30.9942    26.345138 
 4945000    160.84872    71.913312   -11.111033    25.523344    30.549249    26.951751 
 4946000     157.9416    79.481995   -11.295929    26.894939    37.012009    26.870976 
 4947000    153.38322     79.47411   -8.8975278    27.928743    32.152751    28.290143 
 4948000    151.18803    84.408898   -8.4056831    29.392877    34.105333     29.31637 
 4949000    152.66119    92.872814   -8.5441388    33.375874    39.233253    28.807826 
 4950000    162.92365    80.025469   -10.522956    27.119182    36.055134     27.37411 
 4951000    168.12721    81.805071   -6.8734977     24.27231    37.830821    26.575437 
 4952000    163.07778    91.549183    -7.515475    29.050137    38.568773    31.445748 
 4953000    168.56548    97.912716   -6.9779703    32.877324    40.831682     31.18168 
 4954000     158.8995    92.120838   -7.4810865     32.15465    37.543881    29.903393 
 4955000    164.14658    91.729968   -6.6785698    33.317963    36.580335    28.510241 
 4956000    177.89674    85.453764    -7.047162    28.768061    38.313712    25.419154 
 4957000    162.09397    88.974524   -6.4503821    31.438692    35.363242    28.622972 
 4958000    180.58171    86.570129   -10.902032    30.240122    39.851963    27.380076 
 4959000    179.41783    86.110701   -9.2324579    30.502462    35.486373    29.354324 
 4960000    173.03136    88.689742   -9.4864877    31.064533    38.045923    29.065775 
 4961000    159.48651    88.603514   -9.6302211    29.282485    38.076754    30.874495 
 4962000    159.60943    80.405084   -11.504033    24.319951    36.667264    30.921902 
 4963000    160.68942    82.361471   -9.4926659     25.75122    38.024331    28.078586 
 4964000    165.51269    85.709507   -10.627866    31.535099    34.063688    30.738586 
 4965000    161.42489    85.054207   -10.869739    33.578158    34.382642    27.963145 
 4966000    163.60623    87.473764   -9.2700495      28.9094    38.458772    29.375642 
 4967000     164.4471    93.271329   -9.3693477     29.30655    45.777354    27.556773 
 4968000     165.4246     94.47158    -7.747947    33.669119     37.65941    30.890998 
 4969000    151.82448    82.562977   -8.5213851    28.459398    34.004568    28.620396 
 4970000    159.85828    85.857569   -8.7376132    27.921203    36.036752    30.637228 
 4971000    171.76955    84.699092   -6.6154443    27.366827    36.642792    27.304918 
 4972000    160.04602    89.415159     -7.08021     29.49973    39.219561    27.776078 
 4973000    149.00186    92.774733   -9.4534752    30.742502    41.954104    29.531603 
 4974000    167.30535    82.480673   -7.1695706    24.883635    31.918612    32.847996 
 4975000    148.23405    86.014143   -6.9834071     27.11829     34.29513     31.58413 
 4976000    131.70536    91.565554   -7.5065934    27.237183    41.896294     29.93867 
 4977000    160.08893    90.438519   -8.5637164    28.888161    40.495317    29.618758 
 4978000    177.59486    88.344459   -8.5044901    30.419184    36.460415     29.96935 
 4979000    157.15989    91.148093   -10.422962     27.99225    42.878422    30.700383 
 4980000    157.85717    88.595613   -9.1082633    31.344807    37.533137    28.825932 
 4981000    172.43108    82.924388   -7.8529999     27.06092    33.922263    29.794205 
 4982000     164.2871    93.827742   -7.1523306    29.719196      44.5621    26.698777 
 4983000    165.84978    83.169174   -7.1750936    28.699294    32.475201    29.169772 
 4984000    147.48633    95.551605   -6.9586601    34.405452    38.399864    29.704949 
 4985000    156.21494    89.434665   -7.2412863    34.761533    30.128502    31.785916 
 4986000    158.64503    90.914446   -6.6112252    26.949979    36.867312     33.70838 
 4987000    154.67726    89.173168   -6.8167111    29.140373    34.870502    31.979004 
 4988000    150.69942    95.759972   -5.7104325    31.751931    37.268363    32.450111 
 4989000    153.79123     88.25774   -6.4230046    32.758356    30.462764    31.459624 
 4990000    153.78866    87.051922    -6.407784    29.190861    31.963045      32.3058 
 4991000    160.47995    87.549499    -6.794286    31.981772    31.146017    31.215996 
 4992000    150.50813    90.190334   -7.6217799    33.905228    31.613512    32.293374 
 4993000    145.04753    88.379574   -8.4033661    31.286899    32.723831     32.77221 
 4994000    139.22647     101.6055   -7.0814929    35.077189    38.693103    34.916703 
 4995000    161.85611    90.405418   -6.4225251    28.344757    33.963334    34.519853 
 4996000    166.93557    91.990287   -6.1215878    28.365743    35.585647    34.160486 
 4997000     171.9543    87.731412   -5.6500392    26.697288    33.872074    32.812089 
 4998000    150.28227      89.7152   -4.8003808    25.931912     33.73081    34.852859 
 4999000    147.88733    85.047852   -5.3500712     26.72179    30.744301    32.931831 
 5000000    150.49444    95.608823   -5.6311524    31.893627    34.351122    34.995226 
Loop time of 472.923 on 4 procs for 5000000 steps with 185 atoms

Performance: 456.734 ns/day, 0.053 hours/ns, 10572.557 timesteps/s
99.5% CPU use with 4 MPI tasks x no OpenMP threads

MPI task timing breakdown:
Section |  min time  |  avg time  |  max time  |%varavg| %total
---------------------------------------------------------------
Pair    | 139.75     | 165.76     | 193.23     | 166.7 | 35.05
Bond    | 71.546     | 86.195     | 98.696     | 129.6 | 18.23
Neigh   | 3.7711     | 3.7843     | 3.799      |   0.6 |  0.80
Comm    | 134.87     | 178.48     | 224.28     | 278.9 | 37.74
Output  | 0.29052    | 0.40403    | 0.73316    |  29.9 |  0.09
Modify  | 26.825     | 31.747     | 35.598     |  64.9 |  6.71
Other   |            | 6.55       |            |       |  1.38

Nlocal:    46.25 ave 60 max 27 min
Histogram: 1 0 0 0 1 0 0 0 1 1
Nghost:    138.75 ave 158 max 125 min
Histogram: 1 1 0 0 0 1 0 0 0 1
Neighs:    3010.75 ave 4024 max 1919 min
Histogram: 1 0 0 0 0 2 0 0 0 1

Total # of neighbors = 12043
Ave neighs/atom = 65.0973
Ave special neighs/atom = 8.04324
Neighbor list builds = 31988
Dangerous builds = 0
clear

next t
next a
jump SELF loopstart
# set logfile
log		log.run.$t
log		log.run.160
