
# Box and units  (use LJ units and periodic boundaries)
units		real
# so:
#    mass = grams/mole		# same in gromacs
#    distance = Angstroms	# nm in gromacs
#    time = femtoseconds	# ps in gromacs
#    energy = Kcal/mole		# kcal/mol in gromacs
#    velocity = Angstroms/femtosecond	# ...
#    force = Kcal/mole-Angstrom	# ...
#    temperature = Kelvin	# same in gromacs
#    pressure = atmospheres	# same in gromacs
#    dynamic viscosity = Poise	# no idea
dimension	3
atom_style	molecular
boundary	p p p


# Pair interactions require lists of neighbours to be calculated
neighbor	5.0 nsq
neigh_modify	every 1 delay 10 check yes

# define interactions
pair_style	lj12106/cut  30.0 # same as in md_sample.mdp from the smog-model web-tool
pair_modify	shift yes
bond_style	harmonic
angle_style	harmonic
dihedral_style	charmm
special_bonds	lj 0.0 0.0 0.0 angle yes dihedral yes # 3 exclusions

# READ "start" data file
read_data ../../protein/ranaspumin/4-coarsegrained/data.input
  orthogonal box = (-200 -200 -200) to (200 200 200)
  1 by 2 by 2 MPI processor grid
  reading atoms ...
  185 atoms
  scanning bonds ...
  2 = max bonds/atom
  scanning angles ...
  3 = max angles/atom
  scanning dihedrals ...
  8 = max dihedrals/atom
  reading bonds ...
  185 bonds
  reading angles ...
  270 angles
  reading dihedrals ...
  578 dihedrals
  3 = max # of 1-2 neighbors
  5 = max # of 1-3 neighbors
  10 = max # of 1-4 neighbors
  544 = # of 1-3 neighbors before angle trim
  540 = # of 1-3 neighbors after angle trim
  991 = # of 1-4 neighbors before dihedral trim
  578 = # of 1-4 neighbors after dihedral trim
  11 = max # of special neighbors

# define coeffs
include ../../protein/ranaspumin/4-coarsegrained/settings.param
pair_coeff 1 1 0.000000e+00 0.000000e+00 4.009755e+04 # CA1-CA1 type=non-native eps=0.002390 sigma=4.000000
pair_coeff 1 2 0.000000e+00 0.000000e+00 4.009755e+04 # CA1-SC1 type=non-native eps=0.002390 sigma=4.000000
pair_coeff 1 3 0.000000e+00 0.000000e+00 4.009755e+04 # CA1-CA2 type=non-native eps=0.002390 sigma=4.000000
pair_coeff 1 4 0.000000e+00 0.000000e+00 4.009755e+04 # CA1-SC2 type=non-native eps=0.002390 sigma=4.000000
pair_coeff 1 5 0.000000e+00 0.000000e+00 4.009755e+04 # CA1-CA3 type=non-native eps=0.002390 sigma=4.000000
pair_coeff 1 6 0.000000e+00 0.000000e+00 4.009755e+04 # CA1-SC3 type=non-native eps=0.002390 sigma=4.000000
pair_coeff 1 7 0.000000e+00 0.000000e+00 4.009755e+04 # CA1-CA4 type=non-native eps=0.002390 sigma=4.000000
pair_coeff 1 8 0.000000e+00 0.000000e+00 4.009755e+04 # CA1-SC4 type=non-native eps=0.002390 sigma=4.000000
pair_coeff 1 9 0.000000e+00 0.000000e+00 4.009755e+04 # CA1-CA5 type=non-native eps=0.002390 sigma=4.000000
pair_coeff 1 10 0.000000e+00 0.000000e+00 4.009755e+04 # CA1-CA6 type=non-native eps=0.002390 sigma=4.000000
pair_coeff 1 11 0.000000e+00 0.000000e+00 4.009755e+04 # CA1-SC6 type=non-native eps=0.002390 sigma=4.000000
pair_coeff 1 12 0.000000e+00 0.000000e+00 4.009755e+04 # CA1-CA7 type=non-native eps=0.002390 sigma=4.000000
pair_coeff 1 13 0.000000e+00 0.000000e+00 4.009755e+04 # CA1-SC7 type=non-native eps=0.002390 sigma=4.000000
pair_coeff 1 14 0.000000e+00 0.000000e+00 4.009755e+04 # CA1-CA8 type=non-native eps=0.002390 sigma=4.000000
pair_coeff 1 15 0.000000e+00 0.000000e+00 4.009755e+04 # CA1-SC8 type=non-native eps=0.002390 sigma=4.000000
pair_coeff 1 16 0.000000e+00 0.000000e+00 4.009755e+04 # CA1-CA9 type=non-native eps=0.002390 sigma=4.000000
pair_coeff 1 17 0.000000e+00 0.000000e+00 6.317440e+04 # CA1-SC9 type=non-native eps=0.002390 sigma=4.154435
pair_coeff 1 18 0.000000e+00 0.000000e+00 4.009755e+04 # CA1-CA10 type=non-native eps=0.002390 sigma=4.000000
pair_coeff 1 19 0.000000e+00 0.000000e+00 4.009755e+04 # CA1-SC10 type=non-native eps=0.002390 sigma=4.000000
pair_coeff 1 20 0.000000e+00 0.000000e+00 4.009755e+04 # CA1-CA11 type=non-native eps=0.002390 sigma=4.000000
pair_coeff 1 21 0.000000e+00 0.000000e+00 6.317440e+04 # CA1-SC11 type=non-native eps=0.002390 sigma=4.154435
pair_coeff 1 22 0.000000e+00 0.000000e+00 4.009755e+04 # CA1-CA12 type=non-native eps=0.002390 sigma=4.000000
pair_coeff 1 23 0.000000e+00 0.000000e+00 4.009755e+04 # CA1-SC12 type=non-native eps=0.002390 sigma=4.000000
pair_coeff 1 24 0.000000e+00 0.000000e+00 4.009755e+04 # CA1-CA13 type=non-native eps=0.002390 sigma=4.000000
pair_coeff 1 25 0.000000e+00 0.000000e+00 6.317440e+04 # CA1-SC13 type=non-native eps=0.002390 sigma=4.154435
pair_coeff 1 26 0.000000e+00 0.000000e+00 4.009755e+04 # CA1-CA14 type=non-native eps=0.002390 sigma=4.000000
pair_coeff 1 27 0.000000e+00 0.000000e+00 4.009755e+04 # CA1-SC14 type=non-native eps=0.002390 sigma=4.000000
pair_coeff 1 28 0.000000e+00 0.000000e+00 4.009755e+04 # CA1-CA15 type=non-native eps=0.002390 sigma=4.000000
pair_coeff 1 29 0.000000e+00 0.000000e+00 2.286802e+04 # CA1-SC15 type=non-native eps=0.002390 sigma=3.817121
pair_coeff 1 30 0.000000e+00 0.000000e+00 4.009755e+04 # CA1-CA16 type=non-native eps=0.002390 sigma=4.000000
pair_coeff 1 31 0.000000e+00 0.000000e+00 2.286802e+04 # CA1-SC16 type=non-native eps=0.002390 sigma=3.817121
pair_coeff 1 32 0.000000e+00 0.000000e+00 4.009755e+04 # CA1-CA17 type=non-native eps=0.002390 sigma=4.000000
pair_coeff 1 33 0.000000e+00 0.000000e+00 4.009755e+04 # CA1-SC17 type=non-native eps=0.002390 sigma=4.000000
pair_coeff 1 34 0.000000e+00 0.000000e+00 4.009755e+04 # CA1-CA18 type=non-native eps=0.002390 sigma=4.000000
pair_coeff 1 35 0.000000e+00 0.000000e+00 4.009755e+04 # CA1-SC18 type=non-native eps=0.002390 sigma=4.000000
pair_coeff 1 36 0.000000e+00 0.000000e+00 4.009755e+04 # CA1-CA19 type=non-native eps=0.002390 sigma=4.000000
pair_coeff 1 37 0.000000e+00 0.000000e+00 4.009755e+04 # CA1-SC19 type=non-native eps=0.002390 sigma=4.000000
pair_coeff 1 38 0.000000e+00 0.000000e+00 4.009755e+04 # CA1-CA20 type=non-native eps=0.002390 sigma=4.000000
pair_coeff 1 39 0.000000e+00 0.000000e+00 4.009755e+04 # CA1-SC20 type=non-native eps=0.002390 sigma=4.000000
pair_coeff 1 40 0.000000e+00 0.000000e+00 4.009755e+04 # CA1-CA21 type=non-native eps=0.002390 sigma=4.000000
pair_coeff 1 41 0.000000e+00 0.000000e+00 1.293687e+05 # CA1-SC21 type=non-native eps=0.002390 sigma=4.410142
pair_coeff 1 42 0.000000e+00 0.000000e+00 4.009755e+04 # CA1-CA22 type=non-native eps=0.002390 sigma=4.000000
pair_coeff 1 43 0.000000e+00 0.000000e+00 4.009755e+04 # CA1-CA23 type=non-native eps=0.002390 sigma=4.000000
pair_coeff 1 44 0.000000e+00 0.000000e+00 6.317440e+04 # CA1-SC23 type=non-native eps=0.002390 sigma=4.154435
pair_coeff 1 45 0.000000e+00 0.000000e+00 4.009755e+04 # CA1-CA24 type=non-native eps=0.002390 sigma=4.000000
pair_coeff 1 46 0.000000e+00 0.000000e+00 6.317440e+04 # CA1-SC24 type=non-native eps=0.002390 sigma=4.154435
pair_coeff 1 47 0.000000e+00 0.000000e+00 4.009755e+04 # CA1-CA25 type=non-native eps=0.002390 sigma=4.000000
pair_coeff 1 48 0.000000e+00 0.000000e+00 4.009755e+04 # CA1-SC25 type=non-native eps=0.002390 sigma=4.000000
pair_coeff 1 49 0.000000e+00 0.000000e+00 4.009755e+04 # CA1-CA26 type=non-native eps=0.002390 sigma=4.000000
pair_coeff 1 50 0.000000e+00 0.000000e+00 4.009755e+04 # CA1-SC26 type=non-native eps=0.002390 sigma=4.000000
pair_coeff 1 51 0.000000e+00 0.000000e+00 4.009755e+04 # CA1-CA27 type=non-native eps=0.002390 sigma=4.000000
pair_coeff 1 52 0.000000e+00 0.000000e+00 4.009755e+04 # CA1-SC27 type=non-native eps=0.002390 sigma=4.000000
pair_coeff 1 53 0.000000e+00 0.000000e+00 4.009755e+04 # CA1-CA28 type=non-native eps=0.002390 sigma=4.000000
pair_coeff 1 54 0.000000e+00 0.000000e+00 6.317440e+04 # CA1-SC28 type=non-native eps=0.002390 sigma=4.154435
pair_coeff 1 55 0.000000e+00 0.000000e+00 4.009755e+04 # CA1-CA29 type=non-native eps=0.002390 sigma=4.000000
pair_coeff 1 56 -1.088004e+05 0.000000e+00 1.238235e+10 # CA1-SC29 type=native eps=0.239000 sigma=7.813886
pair_coeff 1 57 0.000000e+00 0.000000e+00 4.009755e+04 # CA1-CA30 type=non-native eps=0.002390 sigma=4.000000
pair_coeff 1 58 0.000000e+00 0.000000e+00 6.317440e+04 # CA1-SC30 type=non-native eps=0.002390 sigma=4.154435
pair_coeff 1 59 0.000000e+00 0.000000e+00 4.009755e+04 # CA1-CA31 type=non-native eps=0.002390 sigma=4.000000
pair_coeff 1 60 0.000000e+00 0.000000e+00 4.009755e+04 # CA1-SC31 type=non-native eps=0.002390 sigma=4.000000
pair_coeff 1 61 0.000000e+00 0.000000e+00 4.009755e+04 # CA1-CA32 type=non-native eps=0.002390 sigma=4.000000
pair_coeff 1 62 0.000000e+00 0.000000e+00 4.009755e+04 # CA1-SC32 type=non-native eps=0.002390 sigma=4.000000
pair_coeff 1 63 0.000000e+00 0.000000e+00 4.009755e+04 # CA1-CA33 type=non-native eps=0.002390 sigma=4.000000
pair_coeff 1 64 0.000000e+00 0.000000e+00 4.009755e+04 # CA1-SC33 type=non-native eps=0.002390 sigma=4.000000
pair_coeff 1 65 0.000000e+00 0.000000e+00 4.009755e+04 # CA1-CA34 type=non-native eps=0.002390 sigma=4.000000
pair_coeff 1 66 0.000000e+00 0.000000e+00 6.317440e+04 # CA1-SC34 type=non-native eps=0.002390 sigma=4.154435
pair_coeff 1 67 0.000000e+00 0.000000e+00 4.009755e+04 # CA1-CA35 type=non-native eps=0.002390 sigma=4.000000
pair_coeff 1 68 0.000000e+00 0.000000e+00 4.009755e+04 # CA1-SC35 type=non-native eps=0.002390 sigma=4.000000
pair_coeff 1 69 0.000000e+00 0.000000e+00 4.009755e+04 # CA1-CA36 type=non-native eps=0.002390 sigma=4.000000
pair_coeff 1 70 0.000000e+00 0.000000e+00 6.317440e+04 # CA1-SC36 type=non-native eps=0.002390 sigma=4.154435
pair_coeff 1 71 0.000000e+00 0.000000e+00 4.009755e+04 # CA1-CA37 type=non-native eps=0.002390 sigma=4.000000
pair_coeff 1 72 0.000000e+00 0.000000e+00 1.737309e+05 # CA1-SC37 type=non-native eps=0.002390 sigma=4.519842
pair_coeff 1 73 0.000000e+00 0.000000e+00 4.009755e+04 # CA1-CA38 type=non-native eps=0.002390 sigma=4.000000
pair_coeff 1 74 0.000000e+00 0.000000e+00 4.009755e+04 # CA1-CA39 type=non-native eps=0.002390 sigma=4.000000
pair_coeff 1 75 0.000000e+00 0.000000e+00 2.286802e+04 # CA1-SC39 type=non-native eps=0.002390 sigma=3.817121
pair_coeff 1 76 0.000000e+00 0.000000e+00 4.009755e+04 # CA1-CA40 type=non-native eps=0.002390 sigma=4.000000
pair_coeff 1 77 0.000000e+00 0.000000e+00 4.009755e+04 # CA1-SC40 type=non-native eps=0.002390 sigma=4.000000
pair_coeff 1 78 0.000000e+00 0.000000e+00 4.009755e+04 # CA1-CA41 type=non-native eps=0.002390 sigma=4.000000
pair_coeff 1 79 0.000000e+00 0.000000e+00 2.286802e+04 # CA1-SC41 type=non-native eps=0.002390 sigma=3.817121
pair_coeff 1 80 0.000000e+00 0.000000e+00 4.009755e+04 # CA1-CA42 type=non-native eps=0.002390 sigma=4.000000
pair_coeff 1 81 0.000000e+00 0.000000e+00 6.317440e+04 # CA1-SC42 type=non-native eps=0.002390 sigma=4.154435
pair_coeff 1 82 0.000000e+00 0.000000e+00 4.009755e+04 # CA1-CA43 type=non-native eps=0.002390 sigma=4.000000
pair_coeff 1 83 0.000000e+00 0.000000e+00 4.009755e+04 # CA1-SC43 type=non-native eps=0.002390 sigma=4.000000
pair_coeff 1 84 0.000000e+00 0.000000e+00 4.009755e+04 # CA1-CA44 type=non-native eps=0.002390 sigma=4.000000
pair_coeff 1 85 0.000000e+00 0.000000e+00 4.009755e+04 # CA1-SC44 type=non-native eps=0.002390 sigma=4.000000
pair_coeff 1 86 0.000000e+00 0.000000e+00 4.009755e+04 # CA1-CA45 type=non-native eps=0.002390 sigma=4.000000
pair_coeff 1 87 0.000000e+00 0.000000e+00 6.317440e+04 # CA1-SC45 type=non-native eps=0.002390 sigma=4.154435
pair_coeff 1 88 0.000000e+00 0.000000e+00 4.009755e+04 # CA1-CA46 type=non-native eps=0.002390 sigma=4.000000
pair_coeff 1 89 0.000000e+00 0.000000e+00 4.009755e+04 # CA1-SC46 type=non-native eps=0.002390 sigma=4.000000
pair_coeff 1 90 0.000000e+00 0.000000e+00 4.009755e+04 # CA1-CA47 type=non-native eps=0.002390 sigma=4.000000
pair_coeff 1 91 0.000000e+00 0.000000e+00 4.009755e+04 # CA1-SC47 type=non-native eps=0.002390 sigma=4.000000
pair_coeff 1 92 0.000000e+00 0.000000e+00 4.009755e+04 # CA1-CA48 type=non-native eps=0.002390 sigma=4.000000
pair_coeff 1 93 0.000000e+00 0.000000e+00 6.317440e+04 # CA1-SC48 type=non-native eps=0.002390 sigma=4.154435
pair_coeff 1 94 0.000000e+00 0.000000e+00 4.009755e+04 # CA1-CA49 type=non-native eps=0.002390 sigma=4.000000
pair_coeff 1 95 0.000000e+00 0.000000e+00 2.286802e+04 # CA1-SC49 type=non-native eps=0.002390 sigma=3.817121
pair_coeff 1 96 0.000000e+00 0.000000e+00 4.009755e+04 # CA1-CA50 type=non-native eps=0.002390 sigma=4.000000
pair_coeff 1 97 0.000000e+00 0.000000e+00 1.085818e+04 # CA1-SC50 type=non-native eps=0.002390 sigma=3.587401
pair_coeff 1 98 0.000000e+00 0.000000e+00 4.009755e+04 # CA1-CA51 type=non-native eps=0.002390 sigma=4.000000
pair_coeff 1 99 0.000000e+00 0.000000e+00 6.317440e+04 # CA1-SC51 type=non-native eps=0.002390 sigma=4.154435
pair_coeff 1 100 0.000000e+00 0.000000e+00 4.009755e+04 # CA1-CA52 type=non-native eps=0.002390 sigma=4.000000
pair_coeff 1 101 0.000000e+00 0.000000e+00 4.009755e+04 # CA1-SC52 type=non-native eps=0.002390 sigma=4.000000
pair_coeff 1 102 0.000000e+00 0.000000e+00 4.009755e+04 # CA1-CA53 type=non-native eps=0.002390 sigma=4.000000
pair_coeff 1 103 0.000000e+00 0.000000e+00 6.317440e+04 # CA1-SC53 type=non-native eps=0.002390 sigma=4.154435
pair_coeff 1 104 0.000000e+00 0.000000e+00 4.009755e+04 # CA1-CA54 type=non-native eps=0.002390 sigma=4.000000
pair_coeff 1 105 0.000000e+00 0.000000e+00 1.293687e+05 # CA1-SC54 type=non-native eps=0.002390 sigma=4.410142
pair_coeff 1 106 0.000000e+00 0.000000e+00 4.009755e+04 # CA1-CA55 type=non-native eps=0.002390 sigma=4.000000
pair_coeff 1 107 0.000000e+00 0.000000e+00 1.293687e+05 # CA1-SC55 type=non-native eps=0.002390 sigma=4.410142
pair_coeff 1 108 0.000000e+00 0.000000e+00 4.009755e+04 # CA1-CA56 type=non-native eps=0.002390 sigma=4.000000
pair_coeff 1 109 0.000000e+00 0.000000e+00 1.737309e+05 # CA1-SC56 type=non-native eps=0.002390 sigma=4.519842
pair_coeff 1 110 0.000000e+00 0.000000e+00 4.009755e+04 # CA1-CA57 type=non-native eps=0.002390 sigma=4.000000
pair_coeff 1 111 0.000000e+00 0.000000e+00 1.737309e+05 # CA1-SC57 type=non-native eps=0.002390 sigma=4.519842
pair_coeff 1 112 0.000000e+00 0.000000e+00 4.009755e+04 # CA1-CA58 type=non-native eps=0.002390 sigma=4.000000
pair_coeff 1 113 0.000000e+00 0.000000e+00 2.286802e+04 # CA1-SC58 type=non-native eps=0.002390 sigma=3.817121
pair_coeff 1 114 0.000000e+00 0.000000e+00 4.009755e+04 # CA1-CA59 type=non-native eps=0.002390 sigma=4.000000
pair_coeff 1 115 0.000000e+00 0.000000e+00 1.085818e+04 # CA1-SC59 type=non-native eps=0.002390 sigma=3.587401
pair_coeff 1 116 0.000000e+00 0.000000e+00 4.009755e+04 # CA1-CA60 type=non-native eps=0.002390 sigma=4.000000
pair_coeff 1 117 0.000000e+00 0.000000e+00 2.286802e+04 # CA1-SC60 type=non-native eps=0.002390 sigma=3.817121
pair_coeff 1 118 0.000000e+00 0.000000e+00 4.009755e+04 # CA1-CA61 type=non-native eps=0.002390 sigma=4.000000
pair_coeff 1 119 0.000000e+00 0.000000e+00 4.009755e+04 # CA1-SC61 type=non-native eps=0.002390 sigma=4.000000
pair_coeff 1 120 0.000000e+00 0.000000e+00 4.009755e+04 # CA1-CA62 type=non-native eps=0.002390 sigma=4.000000
pair_coeff 1 121 0.000000e+00 0.000000e+00 3.442571e+03 # CA1-SC62 type=non-native eps=0.002390 sigma=3.259921
pair_coeff 1 122 0.000000e+00 0.000000e+00 4.009755e+04 # CA1-CA63 type=non-native eps=0.002390 sigma=4.000000
pair_coeff 1 123 0.000000e+00 0.000000e+00 4.009755e+04 # CA1-CA64 type=non-native eps=0.002390 sigma=4.000000
pair_coeff 1 124 0.000000e+00 0.000000e+00 4.009755e+04 # CA1-SC64 type=non-native eps=0.002390 sigma=4.000000
pair_coeff 1 125 0.000000e+00 0.000000e+00 4.009755e+04 # CA1-CA65 type=non-native eps=0.002390 sigma=4.000000
pair_coeff 1 126 0.000000e+00 0.000000e+00 4.009755e+04 # CA1-CA66 type=non-native eps=0.002390 sigma=4.000000
pair_coeff 1 127 0.000000e+00 0.000000e+00 6.317440e+04 # CA1-SC66 type=non-native eps=0.002390 sigma=4.154435
pair_coeff 1 128 0.000000e+00 0.000000e+00 4.009755e+04 # CA1-CA67 type=non-native eps=0.002390 sigma=4.000000
pair_coeff 1 129 0.000000e+00 0.000000e+00 6.317440e+04 # CA1-SC67 type=non-native eps=0.002390 sigma=4.154435
pair_coeff 1 130 0.000000e+00 0.000000e+00 4.009755e+04 # CA1-CA68 type=non-native eps=0.002390 sigma=4.000000
pair_coeff 1 131 0.000000e+00 0.000000e+00 1.085818e+04 # CA1-SC68 type=non-native eps=0.002390 sigma=3.587401
pair_coeff 1 132 0.000000e+00 0.000000e+00 4.009755e+04 # CA1-CA69 type=non-native eps=0.002390 sigma=4.000000
pair_coeff 1 133 0.000000e+00 0.000000e+00 6.317440e+04 # CA1-SC69 type=non-native eps=0.002390 sigma=4.154435
pair_coeff 1 134 0.000000e+00 0.000000e+00 4.009755e+04 # CA1-CA70 type=non-native eps=0.002390 sigma=4.000000
pair_coeff 1 135 0.000000e+00 0.000000e+00 1.293687e+05 # CA1-SC70 type=non-native eps=0.002390 sigma=4.410142
pair_coeff 1 136 0.000000e+00 0.000000e+00 4.009755e+04 # CA1-CA71 type=non-native eps=0.002390 sigma=4.000000
pair_coeff 1 137 0.000000e+00 0.000000e+00 6.317440e+04 # CA1-SC71 type=non-native eps=0.002390 sigma=4.154435
pair_coeff 1 138 0.000000e+00 0.000000e+00 4.009755e+04 # CA1-CA72 type=non-native eps=0.002390 sigma=4.000000
pair_coeff 1 139 0.000000e+00 0.000000e+00 4.009755e+04 # CA1-SC72 type=non-native eps=0.002390 sigma=4.000000
pair_coeff 1 140 0.000000e+00 0.000000e+00 4.009755e+04 # CA1-CA73 type=non-native eps=0.002390 sigma=4.000000
pair_coeff 1 141 0.000000e+00 0.000000e+00 1.293687e+05 # CA1-SC73 type=non-native eps=0.002390 sigma=4.410142
pair_coeff 1 142 0.000000e+00 0.000000e+00 4.009755e+04 # CA1-CA74 type=non-native eps=0.002390 sigma=4.000000
pair_coeff 1 143 0.000000e+00 0.000000e+00 6.317440e+04 # CA1-SC74 type=non-native eps=0.002390 sigma=4.154435
pair_coeff 1 144 0.000000e+00 0.000000e+00 4.009755e+04 # CA1-CA75 type=non-native eps=0.002390 sigma=4.000000
pair_coeff 1 145 -8.182292e+02 0.000000e+00 1.167188e+06 # CA1-SC75 type=native eps=0.143400 sigma=3.766020
pair_coeff 1 146 0.000000e+00 0.000000e+00 4.009755e+04 # CA1-CA76 type=non-native eps=0.002390 sigma=4.000000
pair_coeff 1 147 0.000000e+00 0.000000e+00 2.286802e+04 # CA1-SC76 type=non-native eps=0.002390 sigma=3.817121
pair_coeff 1 148 0.000000e+00 0.000000e+00 4.009755e+04 # CA1-CA77 type=non-native eps=0.002390 sigma=4.000000
pair_coeff 1 149 0.000000e+00 0.000000e+00 4.009755e+04 # CA1-SC77 type=non-native eps=0.002390 sigma=4.000000
pair_coeff 1 150 0.000000e+00 0.000000e+00 4.009755e+04 # CA1-CA78 type=non-native eps=0.002390 sigma=4.000000
pair_coeff 1 151 0.000000e+00 0.000000e+00 2.286802e+04 # CA1-SC78 type=non-native eps=0.002390 sigma=3.817121
pair_coeff 1 152 -9.454089e+03 0.000000e+00 2.804805e+08 # CA1-CA79 type=native eps=0.079667 sigma=6.245284
pair_coeff 1 153 0.000000e+00 0.000000e+00 2.286802e+04 # CA1-SC79 type=non-native eps=0.002390 sigma=3.817121
pair_coeff 1 154 0.000000e+00 0.000000e+00 4.009755e+04 # CA1-CA80 type=non-native eps=0.002390 sigma=4.000000
pair_coeff 1 155 0.000000e+00 0.000000e+00 6.317440e+04 # CA1-SC80 type=non-native eps=0.002390 sigma=4.154435
pair_coeff 1 156 0.000000e+00 0.000000e+00 4.009755e+04 # CA1-CA81 type=non-native eps=0.002390 sigma=4.000000
pair_coeff 1 157 0.000000e+00 0.000000e+00 4.009755e+04 # CA1-SC81 type=non-native eps=0.002390 sigma=4.000000
pair_coeff 1 158 0.000000e+00 0.000000e+00 4.009755e+04 # CA1-CA82 type=non-native eps=0.002390 sigma=4.000000
pair_coeff 1 159 0.000000e+00 0.000000e+00 2.286802e+04 # CA1-SC82 type=non-native eps=0.002390 sigma=3.817121
pair_coeff 1 160 0.000000e+00 0.000000e+00 4.009755e+04 # CA1-CA83 type=non-native eps=0.002390 sigma=4.000000
pair_coeff 1 161 0.000000e+00 0.000000e+00 4.009755e+04 # CA1-CA84 type=non-native eps=0.002390 sigma=4.000000
pair_coeff 1 162 0.000000e+00 0.000000e+00 1.293687e+05 # CA1-SC84 type=non-native eps=0.002390 sigma=4.410142
pair_coeff 1 163 0.000000e+00 0.000000e+00 4.009755e+04 # CA1-CA85 type=non-native eps=0.002390 sigma=4.000000
pair_coeff 1 164 0.000000e+00 0.000000e+00 6.317440e+04 # CA1-SC85 type=non-native eps=0.002390 sigma=4.154435
pair_coeff 1 165 0.000000e+00 0.000000e+00 4.009755e+04 # CA1-CA86 type=non-native eps=0.002390 sigma=4.000000
pair_coeff 1 166 0.000000e+00 0.000000e+00 1.085818e+04 # CA1-SC86 type=non-native eps=0.002390 sigma=3.587401
pair_coeff 1 167 0.000000e+00 0.000000e+00 4.009755e+04 # CA1-CA87 type=non-native eps=0.002390 sigma=4.000000
pair_coeff 1 168 0.000000e+00 0.000000e+00 1.293687e+05 # CA1-SC87 type=non-native eps=0.002390 sigma=4.410142
pair_coeff 1 169 0.000000e+00 0.000000e+00 4.009755e+04 # CA1-CA88 type=non-native eps=0.002390 sigma=4.000000
pair_coeff 1 170 0.000000e+00 0.000000e+00 6.317440e+04 # CA1-SC88 type=non-native eps=0.002390 sigma=4.154435
pair_coeff 1 171 0.000000e+00 0.000000e+00 4.009755e+04 # CA1-CA89 type=non-native eps=0.002390 sigma=4.000000
pair_coeff 1 172 0.000000e+00 0.000000e+00 4.009755e+04 # CA1-SC89 type=non-native eps=0.002390 sigma=4.000000
pair_coeff 1 173 0.000000e+00 0.000000e+00 4.009755e+04 # CA1-CA90 type=non-native eps=0.002390 sigma=4.000000
pair_coeff 1 174 0.000000e+00 0.000000e+00 4.009755e+04 # CA1-SC90 type=non-native eps=0.002390 sigma=4.000000
pair_coeff 1 175 0.000000e+00 0.000000e+00 4.009755e+04 # CA1-CA91 type=non-native eps=0.002390 sigma=4.000000
pair_coeff 1 176 0.000000e+00 0.000000e+00 4.009755e+04 # CA1-SC91 type=non-native eps=0.002390 sigma=4.000000
pair_coeff 1 177 0.000000e+00 0.000000e+00 4.009755e+04 # CA1-CA92 type=non-native eps=0.002390 sigma=4.000000
pair_coeff 1 178 0.000000e+00 0.000000e+00 4.009755e+04 # CA1-SC92 type=non-native eps=0.002390 sigma=4.000000
pair_coeff 1 179 0.000000e+00 0.000000e+00 4.009755e+04 # CA1-CA93 type=non-native eps=0.002390 sigma=4.000000
pair_coeff 1 180 0.000000e+00 0.000000e+00 4.009755e+04 # CA1-SC93 type=non-native eps=0.002390 sigma=4.000000
pair_coeff 1 181 0.000000e+00 0.000000e+00 4.009755e+04 # CA1-CA94 type=non-native eps=0.002390 sigma=4.000000
pair_coeff 1 182 0.000000e+00 0.000000e+00 4.009755e+04 # CA1-SC94 type=non-native eps=0.002390 sigma=4.000000
pair_coeff 1 183 0.000000e+00 0.000000e+00 4.009755e+04 # CA1-CA95 type=non-native eps=0.002390 sigma=4.000000
pair_coeff 1 184 0.000000e+00 0.000000e+00 4.009755e+04 # CA1-CA96 type=non-native eps=0.002390 sigma=4.000000
pair_coeff 1 185 0.000000e+00 0.000000e+00 2.264320e+05 # CA1-SC96 type=non-native eps=0.002390 sigma=4.620741
pair_coeff 2 2 0.000000e+00 0.000000e+00 4.009755e+04 # SC1-SC1 type=non-native eps=0.002390 sigma=4.000000
pair_coeff 2 3 0.000000e+00 0.000000e+00 4.009755e+04 # SC1-CA2 type=non-native eps=0.002390 sigma=4.000000
pair_coeff 2 4 0.000000e+00 0.000000e+00 4.009755e+04 # SC1-SC2 type=non-native eps=0.002390 sigma=4.000000
pair_coeff 2 5 0.000000e+00 0.000000e+00 4.009755e+04 # SC1-CA3 type=non-native eps=0.002390 sigma=4.000000
pair_coeff 2 6 0.000000e+00 0.000000e+00 4.009755e+04 # SC1-SC3 type=non-native eps=0.002390 sigma=4.000000
pair_coeff 2 7 0.000000e+00 0.000000e+00 4.009755e+04 # SC1-CA4 type=non-native eps=0.002390 sigma=4.000000
pair_coeff 2 8 0.000000e+00 0.000000e+00 4.009755e+04 # SC1-SC4 type=non-native eps=0.002390 sigma=4.000000
pair_coeff 2 9 0.000000e+00 0.000000e+00 4.009755e+04 # SC1-CA5 type=non-native eps=0.002390 sigma=4.000000
pair_coeff 2 10 0.000000e+00 0.000000e+00 4.009755e+04 # SC1-CA6 type=non-native eps=0.002390 sigma=4.000000
pair_coeff 2 11 0.000000e+00 0.000000e+00 4.009755e+04 # SC1-SC6 type=non-native eps=0.002390 sigma=4.000000
pair_coeff 2 12 0.000000e+00 0.000000e+00 4.009755e+04 # SC1-CA7 type=non-native eps=0.002390 sigma=4.000000
pair_coeff 2 13 0.000000e+00 0.000000e+00 4.009755e+04 # SC1-SC7 type=non-native eps=0.002390 sigma=4.000000
pair_coeff 2 14 0.000000e+00 0.000000e+00 4.009755e+04 # SC1-CA8 type=non-native eps=0.002390 sigma=4.000000
pair_coeff 2 15 0.000000e+00 0.000000e+00 4.009755e+04 # SC1-SC8 type=non-native eps=0.002390 sigma=4.000000
pair_coeff 2 16 0.000000e+00 0.000000e+00 4.009755e+04 # SC1-CA9 type=non-native eps=0.002390 sigma=4.000000
pair_coeff 2 17 0.000000e+00 0.000000e+00 6.317440e+04 # SC1-SC9 type=non-native eps=0.002390 sigma=4.154435
pair_coeff 2 18 0.000000e+00 0.000000e+00 4.009755e+04 # SC1-CA10 type=non-native eps=0.002390 sigma=4.000000
pair_coeff 2 19 0.000000e+00 0.000000e+00 4.009755e+04 # SC1-SC10 type=non-native eps=0.002390 sigma=4.000000
pair_coeff 2 20 0.000000e+00 0.000000e+00 4.009755e+04 # SC1-CA11 type=non-native eps=0.002390 sigma=4.000000
pair_coeff 2 21 0.000000e+00 0.000000e+00 6.317440e+04 # SC1-SC11 type=non-native eps=0.002390 sigma=4.154435
pair_coeff 2 22 0.000000e+00 0.000000e+00 4.009755e+04 # SC1-CA12 type=non-native eps=0.002390 sigma=4.000000
pair_coeff 2 23 0.000000e+00 0.000000e+00 4.009755e+04 # SC1-SC12 type=non-native eps=0.002390 sigma=4.000000
pair_coeff 2 24 0.000000e+00 0.000000e+00 4.009755e+04 # SC1-CA13 type=non-native eps=0.002390 sigma=4.000000
pair_coeff 2 25 0.000000e+00 0.000000e+00 6.317440e+04 # SC1-SC13 type=non-native eps=0.002390 sigma=4.154435
pair_coeff 2 26 0.000000e+00 0.000000e+00 4.009755e+04 # SC1-CA14 type=non-native eps=0.002390 sigma=4.000000
pair_coeff 2 27 0.000000e+00 0.000000e+00 4.009755e+04 # SC1-SC14 type=non-native eps=0.002390 sigma=4.000000
pair_coeff 2 28 0.000000e+00 0.000000e+00 4.009755e+04 # SC1-CA15 type=non-native eps=0.002390 sigma=4.000000
pair_coeff 2 29 0.000000e+00 0.000000e+00 2.286802e+04 # SC1-SC15 type=non-native eps=0.002390 sigma=3.817121
pair_coeff 2 30 0.000000e+00 0.000000e+00 4.009755e+04 # SC1-CA16 type=non-native eps=0.002390 sigma=4.000000
pair_coeff 2 31 0.000000e+00 0.000000e+00 2.286802e+04 # SC1-SC16 type=non-native eps=0.002390 sigma=3.817121
pair_coeff 2 32 0.000000e+00 0.000000e+00 4.009755e+04 # SC1-CA17 type=non-native eps=0.002390 sigma=4.000000
pair_coeff 2 33 0.000000e+00 0.000000e+00 4.009755e+04 # SC1-SC17 type=non-native eps=0.002390 sigma=4.000000
pair_coeff 2 34 0.000000e+00 0.000000e+00 4.009755e+04 # SC1-CA18 type=non-native eps=0.002390 sigma=4.000000
pair_coeff 2 35 0.000000e+00 0.000000e+00 4.009755e+04 # SC1-SC18 type=non-native eps=0.002390 sigma=4.000000
pair_coeff 2 36 0.000000e+00 0.000000e+00 4.009755e+04 # SC1-CA19 type=non-native eps=0.002390 sigma=4.000000
pair_coeff 2 37 0.000000e+00 0.000000e+00 4.009755e+04 # SC1-SC19 type=non-native eps=0.002390 sigma=4.000000
pair_coeff 2 38 0.000000e+00 0.000000e+00 4.009755e+04 # SC1-CA20 type=non-native eps=0.002390 sigma=4.000000
pair_coeff 2 39 0.000000e+00 0.000000e+00 4.009755e+04 # SC1-SC20 type=non-native eps=0.002390 sigma=4.000000
pair_coeff 2 40 0.000000e+00 0.000000e+00 4.009755e+04 # SC1-CA21 type=non-native eps=0.002390 sigma=4.000000
pair_coeff 2 41 0.000000e+00 0.000000e+00 1.293687e+05 # SC1-SC21 type=non-native eps=0.002390 sigma=4.410142
pair_coeff 2 42 0.000000e+00 0.000000e+00 4.009755e+04 # SC1-CA22 type=non-native eps=0.002390 sigma=4.000000
pair_coeff 2 43 0.000000e+00 0.000000e+00 4.009755e+04 # SC1-CA23 type=non-native eps=0.002390 sigma=4.000000
pair_coeff 2 44 0.000000e+00 0.000000e+00 6.317440e+04 # SC1-SC23 type=non-native eps=0.002390 sigma=4.154435
pair_coeff 2 45 0.000000e+00 0.000000e+00 4.009755e+04 # SC1-CA24 type=non-native eps=0.002390 sigma=4.000000
pair_coeff 2 46 0.000000e+00 0.000000e+00 6.317440e+04 # SC1-SC24 type=non-native eps=0.002390 sigma=4.154435
pair_coeff 2 47 0.000000e+00 0.000000e+00 4.009755e+04 # SC1-CA25 type=non-native eps=0.002390 sigma=4.000000
pair_coeff 2 48 0.000000e+00 0.000000e+00 4.009755e+04 # SC1-SC25 type=non-native eps=0.002390 sigma=4.000000
pair_coeff 2 49 0.000000e+00 0.000000e+00 4.009755e+04 # SC1-CA26 type=non-native eps=0.002390 sigma=4.000000
pair_coeff 2 50 0.000000e+00 0.000000e+00 4.009755e+04 # SC1-SC26 type=non-native eps=0.002390 sigma=4.000000
pair_coeff 2 51 0.000000e+00 0.000000e+00 4.009755e+04 # SC1-CA27 type=non-native eps=0.002390 sigma=4.000000
pair_coeff 2 52 0.000000e+00 0.000000e+00 4.009755e+04 # SC1-SC27 type=non-native eps=0.002390 sigma=4.000000
pair_coeff 2 53 0.000000e+00 0.000000e+00 4.009755e+04 # SC1-CA28 type=non-native eps=0.002390 sigma=4.000000
pair_coeff 2 54 0.000000e+00 0.000000e+00 6.317440e+04 # SC1-SC28 type=non-native eps=0.002390 sigma=4.154435
pair_coeff 2 55 0.000000e+00 0.000000e+00 4.009755e+04 # SC1-CA29 type=non-native eps=0.002390 sigma=4.000000
pair_coeff 2 56 0.000000e+00 0.000000e+00 1.293687e+05 # SC1-SC29 type=non-native eps=0.002390 sigma=4.410142
pair_coeff 2 57 0.000000e+00 0.000000e+00 4.009755e+04 # SC1-CA30 type=non-native eps=0.002390 sigma=4.000000
pair_coeff 2 58 0.000000e+00 0.000000e+00 6.317440e+04 # SC1-SC30 type=non-native eps=0.002390 sigma=4.154435
pair_coeff 2 59 0.000000e+00 0.000000e+00 4.009755e+04 # SC1-CA31 type=non-native eps=0.002390 sigma=4.000000
pair_coeff 2 60 0.000000e+00 0.000000e+00 4.009755e+04 # SC1-SC31 type=non-native eps=0.002390 sigma=4.000000
pair_coeff 2 61 0.000000e+00 0.000000e+00 4.009755e+04 # SC1-CA32 type=non-native eps=0.002390 sigma=4.000000
pair_coeff 2 62 0.000000e+00 0.000000e+00 4.009755e+04 # SC1-SC32 type=non-native eps=0.002390 sigma=4.000000
pair_coeff 2 63 0.000000e+00 0.000000e+00 4.009755e+04 # SC1-CA33 type=non-native eps=0.002390 sigma=4.000000
pair_coeff 2 64 0.000000e+00 0.000000e+00 4.009755e+04 # SC1-SC33 type=non-native eps=0.002390 sigma=4.000000
pair_coeff 2 65 0.000000e+00 0.000000e+00 4.009755e+04 # SC1-CA34 type=non-native eps=0.002390 sigma=4.000000
pair_coeff 2 66 0.000000e+00 0.000000e+00 6.317440e+04 # SC1-SC34 type=non-native eps=0.002390 sigma=4.154435
pair_coeff 2 67 0.000000e+00 0.000000e+00 4.009755e+04 # SC1-CA35 type=non-native eps=0.002390 sigma=4.000000
pair_coeff 2 68 0.000000e+00 0.000000e+00 4.009755e+04 # SC1-SC35 type=non-native eps=0.002390 sigma=4.000000
pair_coeff 2 69 0.000000e+00 0.000000e+00 4.009755e+04 # SC1-CA36 type=non-native eps=0.002390 sigma=4.000000
pair_coeff 2 70 0.000000e+00 0.000000e+00 6.317440e+04 # SC1-SC36 type=non-native eps=0.002390 sigma=4.154435
pair_coeff 2 71 0.000000e+00 0.000000e+00 4.009755e+04 # SC1-CA37 type=non-native eps=0.002390 sigma=4.000000
pair_coeff 2 72 0.000000e+00 0.000000e+00 1.737309e+05 # SC1-SC37 type=non-native eps=0.002390 sigma=4.519842
pair_coeff 2 73 0.000000e+00 0.000000e+00 4.009755e+04 # SC1-CA38 type=non-native eps=0.002390 sigma=4.000000
pair_coeff 2 74 0.000000e+00 0.000000e+00 4.009755e+04 # SC1-CA39 type=non-native eps=0.002390 sigma=4.000000
pair_coeff 2 75 0.000000e+00 0.000000e+00 2.286802e+04 # SC1-SC39 type=non-native eps=0.002390 sigma=3.817121
pair_coeff 2 76 0.000000e+00 0.000000e+00 4.009755e+04 # SC1-CA40 type=non-native eps=0.002390 sigma=4.000000
pair_coeff 2 77 0.000000e+00 0.000000e+00 4.009755e+04 # SC1-SC40 type=non-native eps=0.002390 sigma=4.000000
pair_coeff 2 78 0.000000e+00 0.000000e+00 4.009755e+04 # SC1-CA41 type=non-native eps=0.002390 sigma=4.000000
pair_coeff 2 79 0.000000e+00 0.000000e+00 2.286802e+04 # SC1-SC41 type=non-native eps=0.002390 sigma=3.817121
pair_coeff 2 80 0.000000e+00 0.000000e+00 4.009755e+04 # SC1-CA42 type=non-native eps=0.002390 sigma=4.000000
pair_coeff 2 81 0.000000e+00 0.000000e+00 6.317440e+04 # SC1-SC42 type=non-native eps=0.002390 sigma=4.154435
pair_coeff 2 82 0.000000e+00 0.000000e+00 4.009755e+04 # SC1-CA43 type=non-native eps=0.002390 sigma=4.000000
pair_coeff 2 83 0.000000e+00 0.000000e+00 4.009755e+04 # SC1-SC43 type=non-native eps=0.002390 sigma=4.000000
pair_coeff 2 84 0.000000e+00 0.000000e+00 4.009755e+04 # SC1-CA44 type=non-native eps=0.002390 sigma=4.000000
pair_coeff 2 85 0.000000e+00 0.000000e+00 4.009755e+04 # SC1-SC44 type=non-native eps=0.002390 sigma=4.000000
pair_coeff 2 86 0.000000e+00 0.000000e+00 4.009755e+04 # SC1-CA45 type=non-native eps=0.002390 sigma=4.000000
pair_coeff 2 87 0.000000e+00 0.000000e+00 6.317440e+04 # SC1-SC45 type=non-native eps=0.002390 sigma=4.154435
pair_coeff 2 88 0.000000e+00 0.000000e+00 4.009755e+04 # SC1-CA46 type=non-native eps=0.002390 sigma=4.000000
pair_coeff 2 89 0.000000e+00 0.000000e+00 4.009755e+04 # SC1-SC46 type=non-native eps=0.002390 sigma=4.000000
pair_coeff 2 90 0.000000e+00 0.000000e+00 4.009755e+04 # SC1-CA47 type=non-native eps=0.002390 sigma=4.000000
pair_coeff 2 91 0.000000e+00 0.000000e+00 4.009755e+04 # SC1-SC47 type=non-native eps=0.002390 sigma=4.000000
pair_coeff 2 92 0.000000e+00 0.000000e+00 4.009755e+04 # SC1-CA48 type=non-native eps=0.002390 sigma=4.000000
pair_coeff 2 93 0.000000e+00 0.000000e+00 6.317440e+04 # SC1-SC48 type=non-native eps=0.002390 sigma=4.154435
pair_coeff 2 94 0.000000e+00 0.000000e+00 4.009755e+04 # SC1-CA49 type=non-native eps=0.002390 sigma=4.000000
pair_coeff 2 95 0.000000e+00 0.000000e+00 2.286802e+04 # SC1-SC49 type=non-native eps=0.002390 sigma=3.817121
pair_coeff 2 96 0.000000e+00 0.000000e+00 4.009755e+04 # SC1-CA50 type=non-native eps=0.002390 sigma=4.000000
pair_coeff 2 97 0.000000e+00 0.000000e+00 1.085818e+04 # SC1-SC50 type=non-native eps=0.002390 sigma=3.587401
pair_coeff 2 98 0.000000e+00 0.000000e+00 4.009755e+04 # SC1-CA51 type=non-native eps=0.002390 sigma=4.000000
pair_coeff 2 99 0.000000e+00 0.000000e+00 6.317440e+04 # SC1-SC51 type=non-native eps=0.002390 sigma=4.154435
pair_coeff 2 100 0.000000e+00 0.000000e+00 4.009755e+04 # SC1-CA52 type=non-native eps=0.002390 sigma=4.000000
pair_coeff 2 101 0.000000e+00 0.000000e+00 4.009755e+04 # SC1-SC52 type=non-native eps=0.002390 sigma=4.000000
pair_coeff 2 102 0.000000e+00 0.000000e+00 4.009755e+04 # SC1-CA53 type=non-native eps=0.002390 sigma=4.000000
pair_coeff 2 103 0.000000e+00 0.000000e+00 6.317440e+04 # SC1-SC53 type=non-native eps=0.002390 sigma=4.154435
pair_coeff 2 104 0.000000e+00 0.000000e+00 4.009755e+04 # SC1-CA54 type=non-native eps=0.002390 sigma=4.000000
pair_coeff 2 105 0.000000e+00 0.000000e+00 1.293687e+05 # SC1-SC54 type=non-native eps=0.002390 sigma=4.410142
pair_coeff 2 106 0.000000e+00 0.000000e+00 4.009755e+04 # SC1-CA55 type=non-native eps=0.002390 sigma=4.000000
pair_coeff 2 107 0.000000e+00 0.000000e+00 1.293687e+05 # SC1-SC55 type=non-native eps=0.002390 sigma=4.410142
pair_coeff 2 108 0.000000e+00 0.000000e+00 4.009755e+04 # SC1-CA56 type=non-native eps=0.002390 sigma=4.000000
pair_coeff 2 109 0.000000e+00 0.000000e+00 1.737309e+05 # SC1-SC56 type=non-native eps=0.002390 sigma=4.519842
pair_coeff 2 110 0.000000e+00 0.000000e+00 4.009755e+04 # SC1-CA57 type=non-native eps=0.002390 sigma=4.000000
pair_coeff 2 111 0.000000e+00 0.000000e+00 1.737309e+05 # SC1-SC57 type=non-native eps=0.002390 sigma=4.519842
pair_coeff 2 112 0.000000e+00 0.000000e+00 4.009755e+04 # SC1-CA58 type=non-native eps=0.002390 sigma=4.000000
pair_coeff 2 113 0.000000e+00 0.000000e+00 2.286802e+04 # SC1-SC58 type=non-native eps=0.002390 sigma=3.817121
pair_coeff 2 114 0.000000e+00 0.000000e+00 4.009755e+04 # SC1-CA59 type=non-native eps=0.002390 sigma=4.000000
pair_coeff 2 115 0.000000e+00 0.000000e+00 1.085818e+04 # SC1-SC59 type=non-native eps=0.002390 sigma=3.587401
pair_coeff 2 116 0.000000e+00 0.000000e+00 4.009755e+04 # SC1-CA60 type=non-native eps=0.002390 sigma=4.000000
pair_coeff 2 117 0.000000e+00 0.000000e+00 2.286802e+04 # SC1-SC60 type=non-native eps=0.002390 sigma=3.817121
pair_coeff 2 118 0.000000e+00 0.000000e+00 4.009755e+04 # SC1-CA61 type=non-native eps=0.002390 sigma=4.000000
pair_coeff 2 119 0.000000e+00 0.000000e+00 4.009755e+04 # SC1-SC61 type=non-native eps=0.002390 sigma=4.000000
pair_coeff 2 120 0.000000e+00 0.000000e+00 4.009755e+04 # SC1-CA62 type=non-native eps=0.002390 sigma=4.000000
pair_coeff 2 121 0.000000e+00 0.000000e+00 3.442571e+03 # SC1-SC62 type=non-native eps=0.002390 sigma=3.259921
pair_coeff 2 122 0.000000e+00 0.000000e+00 4.009755e+04 # SC1-CA63 type=non-native eps=0.002390 sigma=4.000000
pair_coeff 2 123 0.000000e+00 0.000000e+00 4.009755e+04 # SC1-CA64 type=non-native eps=0.002390 sigma=4.000000
pair_coeff 2 124 0.000000e+00 0.000000e+00 4.009755e+04 # SC1-SC64 type=non-native eps=0.002390 sigma=4.000000
pair_coeff 2 125 0.000000e+00 0.000000e+00 4.009755e+04 # SC1-CA65 type=non-native eps=0.002390 sigma=4.000000
pair_coeff 2 126 0.000000e+00 0.000000e+00 4.009755e+04 # SC1-CA66 type=non-native eps=0.002390 sigma=4.000000
pair_coeff 2 127 0.000000e+00 0.000000e+00 6.317440e+04 # SC1-SC66 type=non-native eps=0.002390 sigma=4.154435
pair_coeff 2 128 0.000000e+00 0.000000e+00 4.009755e+04 # SC1-CA67 type=non-native eps=0.002390 sigma=4.000000
pair_coeff 2 129 0.000000e+00 0.000000e+00 6.317440e+04 # SC1-SC67 type=non-native eps=0.002390 sigma=4.154435
pair_coeff 2 130 0.000000e+00 0.000000e+00 4.009755e+04 # SC1-CA68 type=non-native eps=0.002390 sigma=4.000000
pair_coeff 2 131 0.000000e+00 0.000000e+00 1.085818e+04 # SC1-SC68 type=non-native eps=0.002390 sigma=3.587401
pair_coeff 2 132 0.000000e+00 0.000000e+00 4.009755e+04 # SC1-CA69 type=non-native eps=0.002390 sigma=4.000000
pair_coeff 2 133 0.000000e+00 0.000000e+00 6.317440e+04 # SC1-SC69 type=non-native eps=0.002390 sigma=4.154435
pair_coeff 2 134 0.000000e+00 0.000000e+00 4.009755e+04 # SC1-CA70 type=non-native eps=0.002390 sigma=4.000000
pair_coeff 2 135 0.000000e+00 0.000000e+00 1.293687e+05 # SC1-SC70 type=non-native eps=0.002390 sigma=4.410142
pair_coeff 2 136 0.000000e+00 0.000000e+00 4.009755e+04 # SC1-CA71 type=non-native eps=0.002390 sigma=4.000000
pair_coeff 2 137 0.000000e+00 0.000000e+00 6.317440e+04 # SC1-SC71 type=non-native eps=0.002390 sigma=4.154435
pair_coeff 2 138 0.000000e+00 0.000000e+00 4.009755e+04 # SC1-CA72 type=non-native eps=0.002390 sigma=4.000000
pair_coeff 2 139 0.000000e+00 0.000000e+00 4.009755e+04 # SC1-SC72 type=non-native eps=0.002390 sigma=4.000000
pair_coeff 2 140 0.000000e+00 0.000000e+00 4.009755e+04 # SC1-CA73 type=non-native eps=0.002390 sigma=4.000000
pair_coeff 2 141 0.000000e+00 0.000000e+00 1.293687e+05 # SC1-SC73 type=non-native eps=0.002390 sigma=4.410142
pair_coeff 2 142 0.000000e+00 0.000000e+00 4.009755e+04 # SC1-CA74 type=non-native eps=0.002390 sigma=4.000000
pair_coeff 2 143 0.000000e+00 0.000000e+00 6.317440e+04 # SC1-SC74 type=non-native eps=0.002390 sigma=4.154435
pair_coeff 2 144 0.000000e+00 0.000000e+00 4.009755e+04 # SC1-CA75 type=non-native eps=0.002390 sigma=4.000000
pair_coeff 2 145 -3.643360e+03 0.000000e+00 3.471253e+07 # SC1-SC75 type=native eps=0.095600 sigma=5.168157
pair_coeff 2 146 0.000000e+00 0.000000e+00 4.009755e+04 # SC1-CA76 type=non-native eps=0.002390 sigma=4.000000
pair_coeff 2 147 0.000000e+00 0.000000e+00 2.286802e+04 # SC1-SC76 type=non-native eps=0.002390 sigma=3.817121
pair_coeff 2 148 0.000000e+00 0.000000e+00 4.009755e+04 # SC1-CA77 type=non-native eps=0.002390 sigma=4.000000
pair_coeff 2 149 0.000000e+00 0.000000e+00 4.009755e+04 # SC1-SC77 type=non-native eps=0.002390 sigma=4.000000
pair_coeff 2 150 0.000000e+00 0.000000e+00 4.009755e+04 # SC1-CA78 type=non-native eps=0.002390 sigma=4.000000
pair_coeff 2 151 0.000000e+00 0.000000e+00 2.286802e+04 # SC1-SC78 type=non-native eps=0.002390 sigma=3.817121
pair_coeff 2 152 -1.645100e+04 0.000000e+00 5.661832e+08 # SC1-CA79 type=native eps=0.119500 sigma=6.401756
pair_coeff 2 153 -1.719308e+04 0.000000e+00 1.855242e+09 # SC1-SC79 type=native eps=0.039833 sigma=7.744847
pair_coeff 2 154 0.000000e+00 0.000000e+00 4.009755e+04 # SC1-CA80 type=non-native eps=0.002390 sigma=4.000000
pair_coeff 2 155 0.000000e+00 0.000000e+00 6.317440e+04 # SC1-SC80 type=non-native eps=0.002390 sigma=4.154435
pair_coeff 2 156 0.000000e+00 0.000000e+00 4.009755e+04 # SC1-CA81 type=non-native eps=0.002390 sigma=4.000000
pair_coeff 2 157 0.000000e+00 0.000000e+00 4.009755e+04 # SC1-SC81 type=non-native eps=0.002390 sigma=4.000000
pair_coeff 2 158 0.000000e+00 0.000000e+00 4.009755e+04 # SC1-CA82 type=non-native eps=0.002390 sigma=4.000000
pair_coeff 2 159 0.000000e+00 0.000000e+00 2.286802e+04 # SC1-SC82 type=non-native eps=0.002390 sigma=3.817121
pair_coeff 2 160 0.000000e+00 0.000000e+00 4.009755e+04 # SC1-CA83 type=non-native eps=0.002390 sigma=4.000000
pair_coeff 2 161 0.000000e+00 0.000000e+00 4.009755e+04 # SC1-CA84 type=non-native eps=0.002390 sigma=4.000000
pair_coeff 2 162 0.000000e+00 0.000000e+00 1.293687e+05 # SC1-SC84 type=non-native eps=0.002390 sigma=4.410142
pair_coeff 2 163 0.000000e+00 0.000000e+00 4.009755e+04 # SC1-CA85 type=non-native eps=0.002390 sigma=4.000000
pair_coeff 2 164 0.000000e+00 0.000000e+00 6.317440e+04 # SC1-SC85 type=non-native eps=0.002390 sigma=4.154435
pair_coeff 2 165 0.000000e+00 0.000000e+00 4.009755e+04 # SC1-CA86 type=non-native eps=0.002390 sigma=4.000000
pair_coeff 2 166 0.000000e+00 0.000000e+00 1.085818e+04 # SC1-SC86 type=non-native eps=0.002390 sigma=3.587401
pair_coeff 2 167 0.000000e+00 0.000000e+00 4.009755e+04 # SC1-CA87 type=non-native eps=0.002390 sigma=4.000000
pair_coeff 2 168 0.000000e+00 0.000000e+00 1.293687e+05 # SC1-SC87 type=non-native eps=0.002390 sigma=4.410142
pair_coeff 2 169 0.000000e+00 0.000000e+00 4.009755e+04 # SC1-CA88 type=non-native eps=0.002390 sigma=4.000000
pair_coeff 2 170 0.000000e+00 0.000000e+00 6.317440e+04 # SC1-SC88 type=non-native eps=0.002390 sigma=4.154435
pair_coeff 2 171 0.000000e+00 0.000000e+00 4.009755e+04 # SC1-CA89 type=non-native eps=0.002390 sigma=4.000000
pair_coeff 2 172 0.000000e+00 0.000000e+00 4.009755e+04 # SC1-SC89 type=non-native eps=0.002390 sigma=4.000000
pair_coeff 2 173 0.000000e+00 0.000000e+00 4.009755e+04 # SC1-CA90 type=non-native eps=0.002390 sigma=4.000000
pair_coeff 2 174 0.000000e+00 0.000000e+00 4.009755e+04 # SC1-SC90 type=non-native eps=0.002390 sigma=4.000000
pair_coeff 2 175 0.000000e+00 0.000000e+00 4.009755e+04 # SC1-CA91 type=non-native eps=0.002390 sigma=4.000000
pair_coeff 2 176 0.000000e+00 0.000000e+00 4.009755e+04 # SC1-SC91 type=non-native eps=0.002390 sigma=4.000000
pair_coeff 2 177 0.000000e+00 0.000000e+00 4.009755e+04 # SC1-CA92 type=non-native eps=0.002390 sigma=4.000000
pair_coeff 2 178 0.000000e+00 0.000000e+00 4.009755e+04 # SC1-SC92 type=non-native eps=0.002390 sigma=4.000000
pair_coeff 2 179 0.000000e+00 0.000000e+00 4.009755e+04 # SC1-CA93 type=non-native eps=0.002390 sigma=4.000000
pair_coeff 2 180 0.000000e+00 0.000000e+00 4.009755e+04 # SC1-SC93 type=non-native eps=0.002390 sigma=4.000000
pair_coeff 2 181 0.000000e+00 0.000000e+00 4.009755e+04 # SC1-CA94 type=non-native eps=0.002390 sigma=4.000000
pair_coeff 2 182 0.000000e+00 0.000000e+00 4.009755e+04 # SC1-SC94 type=non-native eps=0.002390 sigma=4.000000
pair_coeff 2 183 0.000000e+00 0.000000e+00 4.009755e+04 # SC1-CA95 type=non-native eps=0.002390 sigma=4.000000
pair_coeff 2 184 0.000000e+00 0.000000e+00 4.009755e+04 # SC1-CA96 type=non-native eps=0.002390 sigma=4.000000
pair_coeff 2 185 0.000000e+00 0.000000e+00 2.264320e+05 # SC1-SC96 type=non-native eps=0.002390 sigma=4.620741
pair_coeff 3 3 0.000000e+00 0.000000e+00 4.009755e+04 # CA2-CA2 type=non-native eps=0.002390 sigma=4.000000
pair_coeff 3 4 0.000000e+00 0.000000e+00 4.009755e+04 # CA2-SC2 type=non-native eps=0.002390 sigma=4.000000
pair_coeff 3 5 0.000000e+00 0.000000e+00 4.009755e+04 # CA2-CA3 type=non-native eps=0.002390 sigma=4.000000
pair_coeff 3 6 0.000000e+00 0.000000e+00 4.009755e+04 # CA2-SC3 type=non-native eps=0.002390 sigma=4.000000
pair_coeff 3 7 0.000000e+00 0.000000e+00 4.009755e+04 # CA2-CA4 type=non-native eps=0.002390 sigma=4.000000
pair_coeff 3 8 0.000000e+00 0.000000e+00 4.009755e+04 # CA2-SC4 type=non-native eps=0.002390 sigma=4.000000
pair_coeff 3 9 0.000000e+00 0.000000e+00 4.009755e+04 # CA2-CA5 type=non-native eps=0.002390 sigma=4.000000
pair_coeff 3 10 0.000000e+00 0.000000e+00 4.009755e+04 # CA2-CA6 type=non-native eps=0.002390 sigma=4.000000
pair_coeff 3 11 0.000000e+00 0.000000e+00 4.009755e+04 # CA2-SC6 type=non-native eps=0.002390 sigma=4.000000
pair_coeff 3 12 0.000000e+00 0.000000e+00 4.009755e+04 # CA2-CA7 type=non-native eps=0.002390 sigma=4.000000
pair_coeff 3 13 0.000000e+00 0.000000e+00 4.009755e+04 # CA2-SC7 type=non-native eps=0.002390 sigma=4.000000
pair_coeff 3 14 0.000000e+00 0.000000e+00 4.009755e+04 # CA2-CA8 type=non-native eps=0.002390 sigma=4.000000
pair_coeff 3 15 0.000000e+00 0.000000e+00 4.009755e+04 # CA2-SC8 type=non-native eps=0.002390 sigma=4.000000
pair_coeff 3 16 0.000000e+00 0.000000e+00 4.009755e+04 # CA2-CA9 type=non-native eps=0.002390 sigma=4.000000
pair_coeff 3 17 0.000000e+00 0.000000e+00 6.317440e+04 # CA2-SC9 type=non-native eps=0.002390 sigma=4.154435
pair_coeff 3 18 0.000000e+00 0.000000e+00 4.009755e+04 # CA2-CA10 type=non-native eps=0.002390 sigma=4.000000
pair_coeff 3 19 0.000000e+00 0.000000e+00 4.009755e+04 # CA2-SC10 type=non-native eps=0.002390 sigma=4.000000
pair_coeff 3 20 0.000000e+00 0.000000e+00 4.009755e+04 # CA2-CA11 type=non-native eps=0.002390 sigma=4.000000
pair_coeff 3 21 0.000000e+00 0.000000e+00 6.317440e+04 # CA2-SC11 type=non-native eps=0.002390 sigma=4.154435
pair_coeff 3 22 0.000000e+00 0.000000e+00 4.009755e+04 # CA2-CA12 type=non-native eps=0.002390 sigma=4.000000
pair_coeff 3 23 0.000000e+00 0.000000e+00 4.009755e+04 # CA2-SC12 type=non-native eps=0.002390 sigma=4.000000
pair_coeff 3 24 0.000000e+00 0.000000e+00 4.009755e+04 # CA2-CA13 type=non-native eps=0.002390 sigma=4.000000
pair_coeff 3 25 0.000000e+00 0.000000e+00 6.317440e+04 # CA2-SC13 type=non-native eps=0.002390 sigma=4.154435
pair_coeff 3 26 0.000000e+00 0.000000e+00 4.009755e+04 # CA2-CA14 type=non-native eps=0.002390 sigma=4.000000
pair_coeff 3 27 0.000000e+00 0.000000e+00 4.009755e+04 # CA2-SC14 type=non-native eps=0.002390 sigma=4.000000
pair_coeff 3 28 0.000000e+00 0.000000e+00 4.009755e+04 # CA2-CA15 type=non-native eps=0.002390 sigma=4.000000
pair_coeff 3 29 0.000000e+00 0.000000e+00 2.286802e+04 # CA2-SC15 type=non-native eps=0.002390 sigma=3.817121
pair_coeff 3 30 0.000000e+00 0.000000e+00 4.009755e+04 # CA2-CA16 type=non-native eps=0.002390 sigma=4.000000
pair_coeff 3 31 0.000000e+00 0.000000e+00 2.286802e+04 # CA2-SC16 type=non-native eps=0.002390 sigma=3.817121
pair_coeff 3 32 0.000000e+00 0.000000e+00 4.009755e+04 # CA2-CA17 type=non-native eps=0.002390 sigma=4.000000
pair_coeff 3 33 0.000000e+00 0.000000e+00 4.009755e+04 # CA2-SC17 type=non-native eps=0.002390 sigma=4.000000
pair_coeff 3 34 0.000000e+00 0.000000e+00 4.009755e+04 # CA2-CA18 type=non-native eps=0.002390 sigma=4.000000
pair_coeff 3 35 0.000000e+00 0.000000e+00 4.009755e+04 # CA2-SC18 type=non-native eps=0.002390 sigma=4.000000
pair_coeff 3 36 0.000000e+00 0.000000e+00 4.009755e+04 # CA2-CA19 type=non-native eps=0.002390 sigma=4.000000
pair_coeff 3 37 0.000000e+00 0.000000e+00 4.009755e+04 # CA2-SC19 type=non-native eps=0.002390 sigma=4.000000
pair_coeff 3 38 0.000000e+00 0.000000e+00 4.009755e+04 # CA2-CA20 type=non-native eps=0.002390 sigma=4.000000
pair_coeff 3 39 0.000000e+00 0.000000e+00 4.009755e+04 # CA2-SC20 type=non-native eps=0.002390 sigma=4.000000
pair_coeff 3 40 0.000000e+00 0.000000e+00 4.009755e+04 # CA2-CA21 type=non-native eps=0.002390 sigma=4.000000
pair_coeff 3 41 0.000000e+00 0.000000e+00 1.293687e+05 # CA2-SC21 type=non-native eps=0.002390 sigma=4.410142
pair_coeff 3 42 0.000000e+00 0.000000e+00 4.009755e+04 # CA2-CA22 type=non-native eps=0.002390 sigma=4.000000
pair_coeff 3 43 0.000000e+00 0.000000e+00 4.009755e+04 # CA2-CA23 type=non-native eps=0.002390 sigma=4.000000
pair_coeff 3 44 0.000000e+00 0.000000e+00 6.317440e+04 # CA2-SC23 type=non-native eps=0.002390 sigma=4.154435
pair_coeff 3 45 0.000000e+00 0.000000e+00 4.009755e+04 # CA2-CA24 type=non-native eps=0.002390 sigma=4.000000
pair_coeff 3 46 0.000000e+00 0.000000e+00 6.317440e+04 # CA2-SC24 type=non-native eps=0.002390 sigma=4.154435
pair_coeff 3 47 0.000000e+00 0.000000e+00 4.009755e+04 # CA2-CA25 type=non-native eps=0.002390 sigma=4.000000
pair_coeff 3 48 0.000000e+00 0.000000e+00 4.009755e+04 # CA2-SC25 type=non-native eps=0.002390 sigma=4.000000
pair_coeff 3 49 0.000000e+00 0.000000e+00 4.009755e+04 # CA2-CA26 type=non-native eps=0.002390 sigma=4.000000
pair_coeff 3 50 0.000000e+00 0.000000e+00 4.009755e+04 # CA2-SC26 type=non-native eps=0.002390 sigma=4.000000
pair_coeff 3 51 0.000000e+00 0.000000e+00 4.009755e+04 # CA2-CA27 type=non-native eps=0.002390 sigma=4.000000
pair_coeff 3 52 0.000000e+00 0.000000e+00 4.009755e+04 # CA2-SC27 type=non-native eps=0.002390 sigma=4.000000
pair_coeff 3 53 0.000000e+00 0.000000e+00 4.009755e+04 # CA2-CA28 type=non-native eps=0.002390 sigma=4.000000
pair_coeff 3 54 0.000000e+00 0.000000e+00 6.317440e+04 # CA2-SC28 type=non-native eps=0.002390 sigma=4.154435
pair_coeff 3 55 0.000000e+00 0.000000e+00 4.009755e+04 # CA2-CA29 type=non-native eps=0.002390 sigma=4.000000
pair_coeff 3 56 -1.314446e+04 0.000000e+00 9.036443e+08 # CA2-SC29 type=native eps=0.047800 sigma=7.184239
pair_coeff 3 57 0.000000e+00 0.000000e+00 4.009755e+04 # CA2-CA30 type=non-native eps=0.002390 sigma=4.000000
pair_coeff 3 58 0.000000e+00 0.000000e+00 6.317440e+04 # CA2-SC30 type=non-native eps=0.002390 sigma=4.154435
pair_coeff 3 59 0.000000e+00 0.000000e+00 4.009755e+04 # CA2-CA31 type=non-native eps=0.002390 sigma=4.000000
pair_coeff 3 60 0.000000e+00 0.000000e+00 4.009755e+04 # CA2-SC31 type=non-native eps=0.002390 sigma=4.000000
pair_coeff 3 61 0.000000e+00 0.000000e+00 4.009755e+04 # CA2-CA32 type=non-native eps=0.002390 sigma=4.000000
pair_coeff 3 62 0.000000e+00 0.000000e+00 4.009755e+04 # CA2-SC32 type=non-native eps=0.002390 sigma=4.000000
pair_coeff 3 63 0.000000e+00 0.000000e+00 4.009755e+04 # CA2-CA33 type=non-native eps=0.002390 sigma=4.000000
pair_coeff 3 64 0.000000e+00 0.000000e+00 4.009755e+04 # CA2-SC33 type=non-native eps=0.002390 sigma=4.000000
pair_coeff 3 65 0.000000e+00 0.000000e+00 4.009755e+04 # CA2-CA34 type=non-native eps=0.002390 sigma=4.000000
pair_coeff 3 66 0.000000e+00 0.000000e+00 6.317440e+04 # CA2-SC34 type=non-native eps=0.002390 sigma=4.154435
pair_coeff 3 67 0.000000e+00 0.000000e+00 4.009755e+04 # CA2-CA35 type=non-native eps=0.002390 sigma=4.000000
pair_coeff 3 68 0.000000e+00 0.000000e+00 4.009755e+04 # CA2-SC35 type=non-native eps=0.002390 sigma=4.000000
pair_coeff 3 69 0.000000e+00 0.000000e+00 4.009755e+04 # CA2-CA36 type=non-native eps=0.002390 sigma=4.000000
pair_coeff 3 70 0.000000e+00 0.000000e+00 6.317440e+04 # CA2-SC36 type=non-native eps=0.002390 sigma=4.154435
pair_coeff 3 71 0.000000e+00 0.000000e+00 4.009755e+04 # CA2-CA37 type=non-native eps=0.002390 sigma=4.000000
pair_coeff 3 72 0.000000e+00 0.000000e+00 1.737309e+05 # CA2-SC37 type=non-native eps=0.002390 sigma=4.519842
pair_coeff 3 73 0.000000e+00 0.000000e+00 4.009755e+04 # CA2-CA38 type=non-native eps=0.002390 sigma=4.000000
pair_coeff 3 74 0.000000e+00 0.000000e+00 4.009755e+04 # CA2-CA39 type=non-native eps=0.002390 sigma=4.000000
pair_coeff 3 75 0.000000e+00 0.000000e+00 2.286802e+04 # CA2-SC39 type=non-native eps=0.002390 sigma=3.817121
pair_coeff 3 76 0.000000e+00 0.000000e+00 4.009755e+04 # CA2-CA40 type=non-native eps=0.002390 sigma=4.000000
pair_coeff 3 77 0.000000e+00 0.000000e+00 4.009755e+04 # CA2-SC40 type=non-native eps=0.002390 sigma=4.000000
pair_coeff 3 78 0.000000e+00 0.000000e+00 4.009755e+04 # CA2-CA41 type=non-native eps=0.002390 sigma=4.000000
pair_coeff 3 79 0.000000e+00 0.000000e+00 2.286802e+04 # CA2-SC41 type=non-native eps=0.002390 sigma=3.817121
pair_coeff 3 80 0.000000e+00 0.000000e+00 4.009755e+04 # CA2-CA42 type=non-native eps=0.002390 sigma=4.000000
pair_coeff 3 81 0.000000e+00 0.000000e+00 6.317440e+04 # CA2-SC42 type=non-native eps=0.002390 sigma=4.154435
pair_coeff 3 82 0.000000e+00 0.000000e+00 4.009755e+04 # CA2-CA43 type=non-native eps=0.002390 sigma=4.000000
pair_coeff 3 83 0.000000e+00 0.000000e+00 4.009755e+04 # CA2-SC43 type=non-native eps=0.002390 sigma=4.000000
pair_coeff 3 84 0.000000e+00 0.000000e+00 4.009755e+04 # CA2-CA44 type=non-native eps=0.002390 sigma=4.000000
pair_coeff 3 85 0.000000e+00 0.000000e+00 4.009755e+04 # CA2-SC44 type=non-native eps=0.002390 sigma=4.000000
pair_coeff 3 86 0.000000e+00 0.000000e+00 4.009755e+04 # CA2-CA45 type=non-native eps=0.002390 sigma=4.000000
pair_coeff 3 87 0.000000e+00 0.000000e+00 6.317440e+04 # CA2-SC45 type=non-native eps=0.002390 sigma=4.154435
pair_coeff 3 88 0.000000e+00 0.000000e+00 4.009755e+04 # CA2-CA46 type=non-native eps=0.002390 sigma=4.000000
pair_coeff 3 89 0.000000e+00 0.000000e+00 4.009755e+04 # CA2-SC46 type=non-native eps=0.002390 sigma=4.000000
pair_coeff 3 90 0.000000e+00 0.000000e+00 4.009755e+04 # CA2-CA47 type=non-native eps=0.002390 sigma=4.000000
pair_coeff 3 91 0.000000e+00 0.000000e+00 4.009755e+04 # CA2-SC47 type=non-native eps=0.002390 sigma=4.000000
pair_coeff 3 92 0.000000e+00 0.000000e+00 4.009755e+04 # CA2-CA48 type=non-native eps=0.002390 sigma=4.000000
pair_coeff 3 93 0.000000e+00 0.000000e+00 6.317440e+04 # CA2-SC48 type=non-native eps=0.002390 sigma=4.154435
pair_coeff 3 94 0.000000e+00 0.000000e+00 4.009755e+04 # CA2-CA49 type=non-native eps=0.002390 sigma=4.000000
pair_coeff 3 95 0.000000e+00 0.000000e+00 2.286802e+04 # CA2-SC49 type=non-native eps=0.002390 sigma=3.817121
pair_coeff 3 96 0.000000e+00 0.000000e+00 4.009755e+04 # CA2-CA50 type=non-native eps=0.002390 sigma=4.000000
pair_coeff 3 97 0.000000e+00 0.000000e+00 1.085818e+04 # CA2-SC50 type=non-native eps=0.002390 sigma=3.587401
pair_coeff 3 98 0.000000e+00 0.000000e+00 4.009755e+04 # CA2-CA51 type=non-native eps=0.002390 sigma=4.000000
pair_coeff 3 99 0.000000e+00 0.000000e+00 6.317440e+04 # CA2-SC51 type=non-native eps=0.002390 sigma=4.154435
pair_coeff 3 100 0.000000e+00 0.000000e+00 4.009755e+04 # CA2-CA52 type=non-native eps=0.002390 sigma=4.000000
pair_coeff 3 101 0.000000e+00 0.000000e+00 4.009755e+04 # CA2-SC52 type=non-native eps=0.002390 sigma=4.000000
pair_coeff 3 102 0.000000e+00 0.000000e+00 4.009755e+04 # CA2-CA53 type=non-native eps=0.002390 sigma=4.000000
pair_coeff 3 103 0.000000e+00 0.000000e+00 6.317440e+04 # CA2-SC53 type=non-native eps=0.002390 sigma=4.154435
pair_coeff 3 104 0.000000e+00 0.000000e+00 4.009755e+04 # CA2-CA54 type=non-native eps=0.002390 sigma=4.000000
pair_coeff 3 105 0.000000e+00 0.000000e+00 1.293687e+05 # CA2-SC54 type=non-native eps=0.002390 sigma=4.410142
pair_coeff 3 106 0.000000e+00 0.000000e+00 4.009755e+04 # CA2-CA55 type=non-native eps=0.002390 sigma=4.000000
pair_coeff 3 107 0.000000e+00 0.000000e+00 1.293687e+05 # CA2-SC55 type=non-native eps=0.002390 sigma=4.410142
pair_coeff 3 108 0.000000e+00 0.000000e+00 4.009755e+04 # CA2-CA56 type=non-native eps=0.002390 sigma=4.000000
pair_coeff 3 109 -1.789837e+04 0.000000e+00 8.377398e+08 # CA2-SC56 type=native eps=0.095600 sigma=6.738361
pair_coeff 3 110 0.000000e+00 0.000000e+00 4.009755e+04 # CA2-CA57 type=non-native eps=0.002390 sigma=4.000000
pair_coeff 3 111 0.000000e+00 0.000000e+00 1.737309e+05 # CA2-SC57 type=non-native eps=0.002390 sigma=4.519842
pair_coeff 3 112 0.000000e+00 0.000000e+00 4.009755e+04 # CA2-CA58 type=non-native eps=0.002390 sigma=4.000000
pair_coeff 3 113 0.000000e+00 0.000000e+00 2.286802e+04 # CA2-SC58 type=non-native eps=0.002390 sigma=3.817121
pair_coeff 3 114 0.000000e+00 0.000000e+00 4.009755e+04 # CA2-CA59 type=non-native eps=0.002390 sigma=4.000000
pair_coeff 3 115 0.000000e+00 0.000000e+00 1.085818e+04 # CA2-SC59 type=non-native eps=0.002390 sigma=3.587401
pair_coeff 3 116 0.000000e+00 0.000000e+00 4.009755e+04 # CA2-CA60 type=non-native eps=0.002390 sigma=4.000000
pair_coeff 3 117 0.000000e+00 0.000000e+00 2.286802e+04 # CA2-SC60 type=non-native eps=0.002390 sigma=3.817121
pair_coeff 3 118 0.000000e+00 0.000000e+00 4.009755e+04 # CA2-CA61 type=non-native eps=0.002390 sigma=4.000000
pair_coeff 3 119 0.000000e+00 0.000000e+00 4.009755e+04 # CA2-SC61 type=non-native eps=0.002390 sigma=4.000000
pair_coeff 3 120 0.000000e+00 0.000000e+00 4.009755e+04 # CA2-CA62 type=non-native eps=0.002390 sigma=4.000000
pair_coeff 3 121 0.000000e+00 0.000000e+00 3.442571e+03 # CA2-SC62 type=non-native eps=0.002390 sigma=3.259921
pair_coeff 3 122 0.000000e+00 0.000000e+00 4.009755e+04 # CA2-CA63 type=non-native eps=0.002390 sigma=4.000000
pair_coeff 3 123 0.000000e+00 0.000000e+00 4.009755e+04 # CA2-CA64 type=non-native eps=0.002390 sigma=4.000000
pair_coeff 3 124 0.000000e+00 0.000000e+00 4.009755e+04 # CA2-SC64 type=non-native eps=0.002390 sigma=4.000000
pair_coeff 3 125 0.000000e+00 0.000000e+00 4.009755e+04 # CA2-CA65 type=non-native eps=0.002390 sigma=4.000000
pair_coeff 3 126 0.000000e+00 0.000000e+00 4.009755e+04 # CA2-CA66 type=non-native eps=0.002390 sigma=4.000000
pair_coeff 3 127 0.000000e+00 0.000000e+00 6.317440e+04 # CA2-SC66 type=non-native eps=0.002390 sigma=4.154435
pair_coeff 3 128 0.000000e+00 0.000000e+00 4.009755e+04 # CA2-CA67 type=non-native eps=0.002390 sigma=4.000000
pair_coeff 3 129 0.000000e+00 0.000000e+00 6.317440e+04 # CA2-SC67 type=non-native eps=0.002390 sigma=4.154435
pair_coeff 3 130 0.000000e+00 0.000000e+00 4.009755e+04 # CA2-CA68 type=non-native eps=0.002390 sigma=4.000000
pair_coeff 3 131 0.000000e+00 0.000000e+00 1.085818e+04 # CA2-SC68 type=non-native eps=0.002390 sigma=3.587401
pair_coeff 3 132 0.000000e+00 0.000000e+00 4.009755e+04 # CA2-CA69 type=non-native eps=0.002390 sigma=4.000000
pair_coeff 3 133 0.000000e+00 0.000000e+00 6.317440e+04 # CA2-SC69 type=non-native eps=0.002390 sigma=4.154435
pair_coeff 3 134 0.000000e+00 0.000000e+00 4.009755e+04 # CA2-CA70 type=non-native eps=0.002390 sigma=4.000000
pair_coeff 3 135 0.000000e+00 0.000000e+00 1.293687e+05 # CA2-SC70 type=non-native eps=0.002390 sigma=4.410142
pair_coeff 3 136 0.000000e+00 0.000000e+00 4.009755e+04 # CA2-CA71 type=non-native eps=0.002390 sigma=4.000000
pair_coeff 3 137 0.000000e+00 0.000000e+00 6.317440e+04 # CA2-SC71 type=non-native eps=0.002390 sigma=4.154435
pair_coeff 3 138 0.000000e+00 0.000000e+00 4.009755e+04 # CA2-CA72 type=non-native eps=0.002390 sigma=4.000000
pair_coeff 3 139 0.000000e+00 0.000000e+00 4.009755e+04 # CA2-SC72 type=non-native eps=0.002390 sigma=4.000000
pair_coeff 3 140 0.000000e+00 0.000000e+00 4.009755e+04 # CA2-CA73 type=non-native eps=0.002390 sigma=4.000000
pair_coeff 3 141 0.000000e+00 0.000000e+00 1.293687e+05 # CA2-SC73 type=non-native eps=0.002390 sigma=4.410142
pair_coeff 3 142 0.000000e+00 0.000000e+00 4.009755e+04 # CA2-CA74 type=non-native eps=0.002390 sigma=4.000000
pair_coeff 3 143 -1.365382e+04 0.000000e+00 4.875179e+08 # CA2-SC74 type=native eps=0.095600 sigma=6.441115
pair_coeff 3 144 -2.857986e+03 0.000000e+00 3.417609e+07 # CA2-CA75 type=native eps=0.059750 sigma=5.367623
pair_coeff 3 145 -3.734339e+03 0.000000e+00 5.834849e+07 # CA2-SC75 type=native eps=0.059750 sigma=5.612301
pair_coeff 3 146 0.000000e+00 0.000000e+00 4.009755e+04 # CA2-CA76 type=non-native eps=0.002390 sigma=4.000000
pair_coeff 3 147 0.000000e+00 0.000000e+00 2.286802e+04 # CA2-SC76 type=non-native eps=0.002390 sigma=3.817121
pair_coeff 3 148 0.000000e+00 0.000000e+00 4.009755e+04 # CA2-CA77 type=non-native eps=0.002390 sigma=4.000000
pair_coeff 3 149 0.000000e+00 0.000000e+00 4.009755e+04 # CA2-SC77 type=non-native eps=0.002390 sigma=4.000000
pair_coeff 3 150 0.000000e+00 0.000000e+00 4.009755e+04 # CA2-CA78 type=non-native eps=0.002390 sigma=4.000000
pair_coeff 3 151 0.000000e+00 0.000000e+00 2.286802e+04 # CA2-SC78 type=non-native eps=0.002390 sigma=3.817121
pair_coeff 3 152 0.000000e+00 0.000000e+00 4.009755e+04 # CA2-CA79 type=non-native eps=0.002390 sigma=4.000000
pair_coeff 3 153 0.000000e+00 0.000000e+00 2.286802e+04 # CA2-SC79 type=non-native eps=0.002390 sigma=3.817121
pair_coeff 3 154 0.000000e+00 0.000000e+00 4.009755e+04 # CA2-CA80 type=non-native eps=0.002390 sigma=4.000000
pair_coeff 3 155 0.000000e+00 0.000000e+00 6.317440e+04 # CA2-SC80 type=non-native eps=0.002390 sigma=4.154435
pair_coeff 3 156 0.000000e+00 0.000000e+00 4.009755e+04 # CA2-CA81 type=non-native eps=0.002390 sigma=4.000000
pair_coeff 3 157 0.000000e+00 0.000000e+00 4.009755e+04 # CA2-SC81 type=non-native eps=0.002390 sigma=4.000000
pair_coeff 3 158 0.000000e+00 0.000000e+00 4.009755e+04 # CA2-CA82 type=non-native eps=0.002390 sigma=4.000000
pair_coeff 3 159 0.000000e+00 0.000000e+00 2.286802e+04 # CA2-SC82 type=non-native eps=0.002390 sigma=3.817121
pair_coeff 3 160 0.000000e+00 0.000000e+00 4.009755e+04 # CA2-CA83 type=non-native eps=0.002390 sigma=4.000000
pair_coeff 3 161 0.000000e+00 0.000000e+00 4.009755e+04 # CA2-CA84 type=non-native eps=0.002390 sigma=4.000000
pair_coeff 3 162 0.000000e+00 0.000000e+00 1.293687e+05 # CA2-SC84 type=non-native eps=0.002390 sigma=4.410142
pair_coeff 3 163 0.000000e+00 0.000000e+00 4.009755e+04 # CA2-CA85 type=non-native eps=0.002390 sigma=4.000000
pair_coeff 3 164 0.000000e+00 0.000000e+00 6.317440e+04 # CA2-SC85 type=non-native eps=0.002390 sigma=4.154435
pair_coeff 3 165 0.000000e+00 0.000000e+00 4.009755e+04 # CA2-CA86 type=non-native eps=0.002390 sigma=4.000000
pair_coeff 3 166 0.000000e+00 0.000000e+00 1.085818e+04 # CA2-SC86 type=non-native eps=0.002390 sigma=3.587401
pair_coeff 3 167 0.000000e+00 0.000000e+00 4.009755e+04 # CA2-CA87 type=non-native eps=0.002390 sigma=4.000000
pair_coeff 3 168 0.000000e+00 0.000000e+00 1.293687e+05 # CA2-SC87 type=non-native eps=0.002390 sigma=4.410142
pair_coeff 3 169 0.000000e+00 0.000000e+00 4.009755e+04 # CA2-CA88 type=non-native eps=0.002390 sigma=4.000000
pair_coeff 3 170 0.000000e+00 0.000000e+00 6.317440e+04 # CA2-SC88 type=non-native eps=0.002390 sigma=4.154435
pair_coeff 3 171 0.000000e+00 0.000000e+00 4.009755e+04 # CA2-CA89 type=non-native eps=0.002390 sigma=4.000000
pair_coeff 3 172 0.000000e+00 0.000000e+00 4.009755e+04 # CA2-SC89 type=non-native eps=0.002390 sigma=4.000000
pair_coeff 3 173 0.000000e+00 0.000000e+00 4.009755e+04 # CA2-CA90 type=non-native eps=0.002390 sigma=4.000000
pair_coeff 3 174 0.000000e+00 0.000000e+00 4.009755e+04 # CA2-SC90 type=non-native eps=0.002390 sigma=4.000000
pair_coeff 3 175 0.000000e+00 0.000000e+00 4.009755e+04 # CA2-CA91 type=non-native eps=0.002390 sigma=4.000000
pair_coeff 3 176 0.000000e+00 0.000000e+00 4.009755e+04 # CA2-SC91 type=non-native eps=0.002390 sigma=4.000000
pair_coeff 3 177 0.000000e+00 0.000000e+00 4.009755e+04 # CA2-CA92 type=non-native eps=0.002390 sigma=4.000000
pair_coeff 3 178 0.000000e+00 0.000000e+00 4.009755e+04 # CA2-SC92 type=non-native eps=0.002390 sigma=4.000000
pair_coeff 3 179 0.000000e+00 0.000000e+00 4.009755e+04 # CA2-CA93 type=non-native eps=0.002390 sigma=4.000000
pair_coeff 3 180 0.000000e+00 0.000000e+00 4.009755e+04 # CA2-SC93 type=non-native eps=0.002390 sigma=4.000000
pair_coeff 3 181 0.000000e+00 0.000000e+00 4.009755e+04 # CA2-CA94 type=non-native eps=0.002390 sigma=4.000000
pair_coeff 3 182 0.000000e+00 0.000000e+00 4.009755e+04 # CA2-SC94 type=non-native eps=0.002390 sigma=4.000000
pair_coeff 3 183 0.000000e+00 0.000000e+00 4.009755e+04 # CA2-CA95 type=non-native eps=0.002390 sigma=4.000000
pair_coeff 3 184 0.000000e+00 0.000000e+00 4.009755e+04 # CA2-CA96 type=non-native eps=0.002390 sigma=4.000000
pair_coeff 3 185 0.000000e+00 0.000000e+00 2.264320e+05 # CA2-SC96 type=non-native eps=0.002390 sigma=4.620741
pair_coeff 4 4 0.000000e+00 0.000000e+00 4.009755e+04 # SC2-SC2 type=non-native eps=0.002390 sigma=4.000000
pair_coeff 4 5 0.000000e+00 0.000000e+00 4.009755e+04 # SC2-CA3 type=non-native eps=0.002390 sigma=4.000000
pair_coeff 4 6 0.000000e+00 0.000000e+00 4.009755e+04 # SC2-SC3 type=non-native eps=0.002390 sigma=4.000000
pair_coeff 4 7 0.000000e+00 0.000000e+00 4.009755e+04 # SC2-CA4 type=non-native eps=0.002390 sigma=4.000000
pair_coeff 4 8 0.000000e+00 0.000000e+00 4.009755e+04 # SC2-SC4 type=non-native eps=0.002390 sigma=4.000000
pair_coeff 4 9 0.000000e+00 0.000000e+00 4.009755e+04 # SC2-CA5 type=non-native eps=0.002390 sigma=4.000000
pair_coeff 4 10 0.000000e+00 0.000000e+00 4.009755e+04 # SC2-CA6 type=non-native eps=0.002390 sigma=4.000000
pair_coeff 4 11 0.000000e+00 0.000000e+00 4.009755e+04 # SC2-SC6 type=non-native eps=0.002390 sigma=4.000000
pair_coeff 4 12 0.000000e+00 0.000000e+00 4.009755e+04 # SC2-CA7 type=non-native eps=0.002390 sigma=4.000000
pair_coeff 4 13 0.000000e+00 0.000000e+00 4.009755e+04 # SC2-SC7 type=non-native eps=0.002390 sigma=4.000000
pair_coeff 4 14 0.000000e+00 0.000000e+00 4.009755e+04 # SC2-CA8 type=non-native eps=0.002390 sigma=4.000000
pair_coeff 4 15 0.000000e+00 0.000000e+00 4.009755e+04 # SC2-SC8 type=non-native eps=0.002390 sigma=4.000000
pair_coeff 4 16 0.000000e+00 0.000000e+00 4.009755e+04 # SC2-CA9 type=non-native eps=0.002390 sigma=4.000000
pair_coeff 4 17 0.000000e+00 0.000000e+00 6.317440e+04 # SC2-SC9 type=non-native eps=0.002390 sigma=4.154435
pair_coeff 4 18 0.000000e+00 0.000000e+00 4.009755e+04 # SC2-CA10 type=non-native eps=0.002390 sigma=4.000000
pair_coeff 4 19 0.000000e+00 0.000000e+00 4.009755e+04 # SC2-SC10 type=non-native eps=0.002390 sigma=4.000000
pair_coeff 4 20 0.000000e+00 0.000000e+00 4.009755e+04 # SC2-CA11 type=non-native eps=0.002390 sigma=4.000000
pair_coeff 4 21 0.000000e+00 0.000000e+00 6.317440e+04 # SC2-SC11 type=non-native eps=0.002390 sigma=4.154435
pair_coeff 4 22 0.000000e+00 0.000000e+00 4.009755e+04 # SC2-CA12 type=non-native eps=0.002390 sigma=4.000000
pair_coeff 4 23 0.000000e+00 0.000000e+00 4.009755e+04 # SC2-SC12 type=non-native eps=0.002390 sigma=4.000000
pair_coeff 4 24 0.000000e+00 0.000000e+00 4.009755e+04 # SC2-CA13 type=non-native eps=0.002390 sigma=4.000000
pair_coeff 4 25 0.000000e+00 0.000000e+00 6.317440e+04 # SC2-SC13 type=non-native eps=0.002390 sigma=4.154435
pair_coeff 4 26 0.000000e+00 0.000000e+00 4.009755e+04 # SC2-CA14 type=non-native eps=0.002390 sigma=4.000000
pair_coeff 4 27 0.000000e+00 0.000000e+00 4.009755e+04 # SC2-SC14 type=non-native eps=0.002390 sigma=4.000000
pair_coeff 4 28 0.000000e+00 0.000000e+00 4.009755e+04 # SC2-CA15 type=non-native eps=0.002390 sigma=4.000000
pair_coeff 4 29 0.000000e+00 0.000000e+00 2.286802e+04 # SC2-SC15 type=non-native eps=0.002390 sigma=3.817121
pair_coeff 4 30 0.000000e+00 0.000000e+00 4.009755e+04 # SC2-CA16 type=non-native eps=0.002390 sigma=4.000000
pair_coeff 4 31 0.000000e+00 0.000000e+00 2.286802e+04 # SC2-SC16 type=non-native eps=0.002390 sigma=3.817121
pair_coeff 4 32 0.000000e+00 0.000000e+00 4.009755e+04 # SC2-CA17 type=non-native eps=0.002390 sigma=4.000000
pair_coeff 4 33 0.000000e+00 0.000000e+00 4.009755e+04 # SC2-SC17 type=non-native eps=0.002390 sigma=4.000000
pair_coeff 4 34 0.000000e+00 0.000000e+00 4.009755e+04 # SC2-CA18 type=non-native eps=0.002390 sigma=4.000000
pair_coeff 4 35 0.000000e+00 0.000000e+00 4.009755e+04 # SC2-SC18 type=non-native eps=0.002390 sigma=4.000000
pair_coeff 4 36 0.000000e+00 0.000000e+00 4.009755e+04 # SC2-CA19 type=non-native eps=0.002390 sigma=4.000000
pair_coeff 4 37 0.000000e+00 0.000000e+00 4.009755e+04 # SC2-SC19 type=non-native eps=0.002390 sigma=4.000000
pair_coeff 4 38 0.000000e+00 0.000000e+00 4.009755e+04 # SC2-CA20 type=non-native eps=0.002390 sigma=4.000000
pair_coeff 4 39 0.000000e+00 0.000000e+00 4.009755e+04 # SC2-SC20 type=non-native eps=0.002390 sigma=4.000000
pair_coeff 4 40 0.000000e+00 0.000000e+00 4.009755e+04 # SC2-CA21 type=non-native eps=0.002390 sigma=4.000000
pair_coeff 4 41 0.000000e+00 0.000000e+00 1.293687e+05 # SC2-SC21 type=non-native eps=0.002390 sigma=4.410142
pair_coeff 4 42 0.000000e+00 0.000000e+00 4.009755e+04 # SC2-CA22 type=non-native eps=0.002390 sigma=4.000000
pair_coeff 4 43 0.000000e+00 0.000000e+00 4.009755e+04 # SC2-CA23 type=non-native eps=0.002390 sigma=4.000000
pair_coeff 4 44 0.000000e+00 0.000000e+00 6.317440e+04 # SC2-SC23 type=non-native eps=0.002390 sigma=4.154435
pair_coeff 4 45 0.000000e+00 0.000000e+00 4.009755e+04 # SC2-CA24 type=non-native eps=0.002390 sigma=4.000000
pair_coeff 4 46 0.000000e+00 0.000000e+00 6.317440e+04 # SC2-SC24 type=non-native eps=0.002390 sigma=4.154435
pair_coeff 4 47 0.000000e+00 0.000000e+00 4.009755e+04 # SC2-CA25 type=non-native eps=0.002390 sigma=4.000000
pair_coeff 4 48 -3.182892e+04 0.000000e+00 1.059707e+09 # SC2-SC25 type=native eps=0.239000 sigma=6.366474
pair_coeff 4 49 0.000000e+00 0.000000e+00 4.009755e+04 # SC2-CA26 type=non-native eps=0.002390 sigma=4.000000
pair_coeff 4 50 0.000000e+00 0.000000e+00 4.009755e+04 # SC2-SC26 type=non-native eps=0.002390 sigma=4.000000
pair_coeff 4 51 0.000000e+00 0.000000e+00 4.009755e+04 # SC2-CA27 type=non-native eps=0.002390 sigma=4.000000
pair_coeff 4 52 0.000000e+00 0.000000e+00 4.009755e+04 # SC2-SC27 type=non-native eps=0.002390 sigma=4.000000
pair_coeff 4 53 0.000000e+00 0.000000e+00 4.009755e+04 # SC2-CA28 type=non-native eps=0.002390 sigma=4.000000
pair_coeff 4 54 -3.575682e+04 0.000000e+00 1.337395e+09 # SC2-SC28 type=native eps=0.239000 sigma=6.491153
pair_coeff 4 55 0.000000e+00 0.000000e+00 4.009755e+04 # SC2-CA29 type=non-native eps=0.002390 sigma=4.000000
pair_coeff 4 56 -1.692983e+04 0.000000e+00 3.747637e+08 # SC2-SC29 type=native eps=0.191200 sigma=5.947792
pair_coeff 4 57 0.000000e+00 0.000000e+00 4.009755e+04 # SC2-CA30 type=non-native eps=0.002390 sigma=4.000000
pair_coeff 4 58 0.000000e+00 0.000000e+00 6.317440e+04 # SC2-SC30 type=non-native eps=0.002390 sigma=4.154435
pair_coeff 4 59 0.000000e+00 0.000000e+00 4.009755e+04 # SC2-CA31 type=non-native eps=0.002390 sigma=4.000000
pair_coeff 4 60 0.000000e+00 0.000000e+00 4.009755e+04 # SC2-SC31 type=non-native eps=0.002390 sigma=4.000000
pair_coeff 4 61 0.000000e+00 0.000000e+00 4.009755e+04 # SC2-CA32 type=non-native eps=0.002390 sigma=4.000000
pair_coeff 4 62 0.000000e+00 0.000000e+00 4.009755e+04 # SC2-SC32 type=non-native eps=0.002390 sigma=4.000000
pair_coeff 4 63 0.000000e+00 0.000000e+00 4.009755e+04 # SC2-CA33 type=non-native eps=0.002390 sigma=4.000000
pair_coeff 4 64 0.000000e+00 0.000000e+00 4.009755e+04 # SC2-SC33 type=non-native eps=0.002390 sigma=4.000000
pair_coeff 4 65 0.000000e+00 0.000000e+00 4.009755e+04 # SC2-CA34 type=non-native eps=0.002390 sigma=4.000000
pair_coeff 4 66 0.000000e+00 0.000000e+00 6.317440e+04 # SC2-SC34 type=non-native eps=0.002390 sigma=4.154435
pair_coeff 4 67 0.000000e+00 0.000000e+00 4.009755e+04 # SC2-CA35 type=non-native eps=0.002390 sigma=4.000000
pair_coeff 4 68 0.000000e+00 0.000000e+00 4.009755e+04 # SC2-SC35 type=non-native eps=0.002390 sigma=4.000000
pair_coeff 4 69 0.000000e+00 0.000000e+00 4.009755e+04 # SC2-CA36 type=non-native eps=0.002390 sigma=4.000000
pair_coeff 4 70 0.000000e+00 0.000000e+00 6.317440e+04 # SC2-SC36 type=non-native eps=0.002390 sigma=4.154435
pair_coeff 4 71 0.000000e+00 0.000000e+00 4.009755e+04 # SC2-CA37 type=non-native eps=0.002390 sigma=4.000000
pair_coeff 4 72 0.000000e+00 0.000000e+00 1.737309e+05 # SC2-SC37 type=non-native eps=0.002390 sigma=4.519842
pair_coeff 4 73 0.000000e+00 0.000000e+00 4.009755e+04 # SC2-CA38 type=non-native eps=0.002390 sigma=4.000000
pair_coeff 4 74 0.000000e+00 0.000000e+00 4.009755e+04 # SC2-CA39 type=non-native eps=0.002390 sigma=4.000000
pair_coeff 4 75 0.000000e+00 0.000000e+00 2.286802e+04 # SC2-SC39 type=non-native eps=0.002390 sigma=3.817121
pair_coeff 4 76 0.000000e+00 0.000000e+00 4.009755e+04 # SC2-CA40 type=non-native eps=0.002390 sigma=4.000000
pair_coeff 4 77 0.000000e+00 0.000000e+00 4.009755e+04 # SC2-SC40 type=non-native eps=0.002390 sigma=4.000000
pair_coeff 4 78 0.000000e+00 0.000000e+00 4.009755e+04 # SC2-CA41 type=non-native eps=0.002390 sigma=4.000000
pair_coeff 4 79 0.000000e+00 0.000000e+00 2.286802e+04 # SC2-SC41 type=non-native eps=0.002390 sigma=3.817121
pair_coeff 4 80 0.000000e+00 0.000000e+00 4.009755e+04 # SC2-CA42 type=non-native eps=0.002390 sigma=4.000000
pair_coeff 4 81 0.000000e+00 0.000000e+00 6.317440e+04 # SC2-SC42 type=non-native eps=0.002390 sigma=4.154435
pair_coeff 4 82 0.000000e+00 0.000000e+00 4.009755e+04 # SC2-CA43 type=non-native eps=0.002390 sigma=4.000000
pair_coeff 4 83 0.000000e+00 0.000000e+00 4.009755e+04 # SC2-SC43 type=non-native eps=0.002390 sigma=4.000000
pair_coeff 4 84 0.000000e+00 0.000000e+00 4.009755e+04 # SC2-CA44 type=non-native eps=0.002390 sigma=4.000000
pair_coeff 4 85 0.000000e+00 0.000000e+00 4.009755e+04 # SC2-SC44 type=non-native eps=0.002390 sigma=4.000000
pair_coeff 4 86 0.000000e+00 0.000000e+00 4.009755e+04 # SC2-CA45 type=non-native eps=0.002390 sigma=4.000000
pair_coeff 4 87 0.000000e+00 0.000000e+00 6.317440e+04 # SC2-SC45 type=non-native eps=0.002390 sigma=4.154435
pair_coeff 4 88 0.000000e+00 0.000000e+00 4.009755e+04 # SC2-CA46 type=non-native eps=0.002390 sigma=4.000000
pair_coeff 4 89 0.000000e+00 0.000000e+00 4.009755e+04 # SC2-SC46 type=non-native eps=0.002390 sigma=4.000000
pair_coeff 4 90 0.000000e+00 0.000000e+00 4.009755e+04 # SC2-CA47 type=non-native eps=0.002390 sigma=4.000000
pair_coeff 4 91 0.000000e+00 0.000000e+00 4.009755e+04 # SC2-SC47 type=non-native eps=0.002390 sigma=4.000000
pair_coeff 4 92 0.000000e+00 0.000000e+00 4.009755e+04 # SC2-CA48 type=non-native eps=0.002390 sigma=4.000000
pair_coeff 4 93 0.000000e+00 0.000000e+00 6.317440e+04 # SC2-SC48 type=non-native eps=0.002390 sigma=4.154435
pair_coeff 4 94 0.000000e+00 0.000000e+00 4.009755e+04 # SC2-CA49 type=non-native eps=0.002390 sigma=4.000000
pair_coeff 4 95 0.000000e+00 0.000000e+00 2.286802e+04 # SC2-SC49 type=non-native eps=0.002390 sigma=3.817121
pair_coeff 4 96 0.000000e+00 0.000000e+00 4.009755e+04 # SC2-CA50 type=non-native eps=0.002390 sigma=4.000000
pair_coeff 4 97 0.000000e+00 0.000000e+00 1.085818e+04 # SC2-SC50 type=non-native eps=0.002390 sigma=3.587401
pair_coeff 4 98 0.000000e+00 0.000000e+00 4.009755e+04 # SC2-CA51 type=non-native eps=0.002390 sigma=4.000000
pair_coeff 4 99 0.000000e+00 0.000000e+00 6.317440e+04 # SC2-SC51 type=non-native eps=0.002390 sigma=4.154435
pair_coeff 4 100 0.000000e+00 0.000000e+00 4.009755e+04 # SC2-CA52 type=non-native eps=0.002390 sigma=4.000000
pair_coeff 4 101 0.000000e+00 0.000000e+00 4.009755e+04 # SC2-SC52 type=non-native eps=0.002390 sigma=4.000000
pair_coeff 4 102 0.000000e+00 0.000000e+00 4.009755e+04 # SC2-CA53 type=non-native eps=0.002390 sigma=4.000000
pair_coeff 4 103 0.000000e+00 0.000000e+00 6.317440e+04 # SC2-SC53 type=non-native eps=0.002390 sigma=4.154435
pair_coeff 4 104 0.000000e+00 0.000000e+00 4.009755e+04 # SC2-CA54 type=non-native eps=0.002390 sigma=4.000000
pair_coeff 4 105 0.000000e+00 0.000000e+00 1.293687e+05 # SC2-SC54 type=non-native eps=0.002390 sigma=4.410142
pair_coeff 4 106 0.000000e+00 0.000000e+00 4.009755e+04 # SC2-CA55 type=non-native eps=0.002390 sigma=4.000000
pair_coeff 4 107 0.000000e+00 0.000000e+00 1.293687e+05 # SC2-SC55 type=non-native eps=0.002390 sigma=4.410142
pair_coeff 4 108 0.000000e+00 0.000000e+00 4.009755e+04 # SC2-CA56 type=non-native eps=0.002390 sigma=4.000000
pair_coeff 4 109 -4.751890e+03 0.000000e+00 3.936621e+07 # SC2-SC56 type=native eps=0.143400 sigma=5.049107
pair_coeff 4 110 0.000000e+00 0.000000e+00 4.009755e+04 # SC2-CA57 type=non-native eps=0.002390 sigma=4.000000
pair_coeff 4 111 0.000000e+00 0.000000e+00 1.737309e+05 # SC2-SC57 type=non-native eps=0.002390 sigma=4.519842
pair_coeff 4 112 0.000000e+00 0.000000e+00 4.009755e+04 # SC2-CA58 type=non-native eps=0.002390 sigma=4.000000
pair_coeff 4 113 0.000000e+00 0.000000e+00 2.286802e+04 # SC2-SC58 type=non-native eps=0.002390 sigma=3.817121
pair_coeff 4 114 0.000000e+00 0.000000e+00 4.009755e+04 # SC2-CA59 type=non-native eps=0.002390 sigma=4.000000
pair_coeff 4 115 0.000000e+00 0.000000e+00 1.085818e+04 # SC2-SC59 type=non-native eps=0.002390 sigma=3.587401
pair_coeff 4 116 0.000000e+00 0.000000e+00 4.009755e+04 # SC2-CA60 type=non-native eps=0.002390 sigma=4.000000
pair_coeff 4 117 0.000000e+00 0.000000e+00 2.286802e+04 # SC2-SC60 type=non-native eps=0.002390 sigma=3.817121
pair_coeff 4 118 0.000000e+00 0.000000e+00 4.009755e+04 # SC2-CA61 type=non-native eps=0.002390 sigma=4.000000
pair_coeff 4 119 0.000000e+00 0.000000e+00 4.009755e+04 # SC2-SC61 type=non-native eps=0.002390 sigma=4.000000
pair_coeff 4 120 0.000000e+00 0.000000e+00 4.009755e+04 # SC2-CA62 type=non-native eps=0.002390 sigma=4.000000
pair_coeff 4 121 0.000000e+00 0.000000e+00 3.442571e+03 # SC2-SC62 type=non-native eps=0.002390 sigma=3.259921
pair_coeff 4 122 0.000000e+00 0.000000e+00 4.009755e+04 # SC2-CA63 type=non-native eps=0.002390 sigma=4.000000
pair_coeff 4 123 0.000000e+00 0.000000e+00 4.009755e+04 # SC2-CA64 type=non-native eps=0.002390 sigma=4.000000
pair_coeff 4 124 0.000000e+00 0.000000e+00 4.009755e+04 # SC2-SC64 type=non-native eps=0.002390 sigma=4.000000
pair_coeff 4 125 0.000000e+00 0.000000e+00 4.009755e+04 # SC2-CA65 type=non-native eps=0.002390 sigma=4.000000
pair_coeff 4 126 0.000000e+00 0.000000e+00 4.009755e+04 # SC2-CA66 type=non-native eps=0.002390 sigma=4.000000
pair_coeff 4 127 0.000000e+00 0.000000e+00 6.317440e+04 # SC2-SC66 type=non-native eps=0.002390 sigma=4.154435
pair_coeff 4 128 0.000000e+00 0.000000e+00 4.009755e+04 # SC2-CA67 type=non-native eps=0.002390 sigma=4.000000
pair_coeff 4 129 0.000000e+00 0.000000e+00 6.317440e+04 # SC2-SC67 type=non-native eps=0.002390 sigma=4.154435
pair_coeff 4 130 0.000000e+00 0.000000e+00 4.009755e+04 # SC2-CA68 type=non-native eps=0.002390 sigma=4.000000
pair_coeff 4 131 0.000000e+00 0.000000e+00 1.085818e+04 # SC2-SC68 type=non-native eps=0.002390 sigma=3.587401
pair_coeff 4 132 0.000000e+00 0.000000e+00 4.009755e+04 # SC2-CA69 type=non-native eps=0.002390 sigma=4.000000
pair_coeff 4 133 0.000000e+00 0.000000e+00 6.317440e+04 # SC2-SC69 type=non-native eps=0.002390 sigma=4.154435
pair_coeff 4 134 0.000000e+00 0.000000e+00 4.009755e+04 # SC2-CA70 type=non-native eps=0.002390 sigma=4.000000
pair_coeff 4 135 0.000000e+00 0.000000e+00 1.293687e+05 # SC2-SC70 type=non-native eps=0.002390 sigma=4.410142
pair_coeff 4 136 0.000000e+00 0.000000e+00 4.009755e+04 # SC2-CA71 type=non-native eps=0.002390 sigma=4.000000
pair_coeff 4 137 0.000000e+00 0.000000e+00 6.317440e+04 # SC2-SC71 type=non-native eps=0.002390 sigma=4.154435
pair_coeff 4 138 -3.561608e+04 0.000000e+00 3.980664e+09 # SC2-CA72 type=native eps=0.079667 sigma=7.790343
pair_coeff 4 139 -2.680973e+04 0.000000e+00 1.127764e+09 # SC2-SC72 type=native eps=0.159333 sigma=6.619512
pair_coeff 4 140 -1.548521e+05 0.000000e+00 2.508282e+10 # SC2-CA73 type=native eps=0.239000 sigma=8.287335
pair_coeff 4 141 0.000000e+00 0.000000e+00 1.293687e+05 # SC2-SC73 type=non-native eps=0.002390 sigma=4.410142
pair_coeff 4 142 -2.493657e+03 0.000000e+00 3.252261e+07 # SC2-CA74 type=native eps=0.047800 sigma=5.445818
pair_coeff 4 143 -7.943021e+03 0.000000e+00 1.649885e+08 # SC2-SC74 type=native eps=0.095600 sigma=5.885043
pair_coeff 4 144 -8.751311e+03 0.000000e+00 3.204412e+08 # SC2-CA75 type=native eps=0.059750 sigma=6.468211
pair_coeff 4 145 -1.563284e+04 0.000000e+00 1.022534e+09 # SC2-SC75 type=native eps=0.059750 sigma=7.124892
pair_coeff 4 146 0.000000e+00 0.000000e+00 4.009755e+04 # SC2-CA76 type=non-native eps=0.002390 sigma=4.000000
pair_coeff 4 147 0.000000e+00 0.000000e+00 2.286802e+04 # SC2-SC76 type=non-native eps=0.002390 sigma=3.817121
pair_coeff 4 148 0.000000e+00 0.000000e+00 4.009755e+04 # SC2-CA77 type=non-native eps=0.002390 sigma=4.000000
pair_coeff 4 149 0.000000e+00 0.000000e+00 4.009755e+04 # SC2-SC77 type=non-native eps=0.002390 sigma=4.000000
pair_coeff 4 150 0.000000e+00 0.000000e+00 4.009755e+04 # SC2-CA78 type=non-native eps=0.002390 sigma=4.000000
pair_coeff 4 151 0.000000e+00 0.000000e+00 2.286802e+04 # SC2-SC78 type=non-native eps=0.002390 sigma=3.817121
pair_coeff 4 152 0.000000e+00 0.000000e+00 4.009755e+04 # SC2-CA79 type=non-native eps=0.002390 sigma=4.000000
pair_coeff 4 153 0.000000e+00 0.000000e+00 2.286802e+04 # SC2-SC79 type=non-native eps=0.002390 sigma=3.817121
pair_coeff 4 154 0.000000e+00 0.000000e+00 4.009755e+04 # SC2-CA80 type=non-native eps=0.002390 sigma=4.000000
pair_coeff 4 155 0.000000e+00 0.000000e+00 6.317440e+04 # SC2-SC80 type=non-native eps=0.002390 sigma=4.154435
pair_coeff 4 156 0.000000e+00 0.000000e+00 4.009755e+04 # SC2-CA81 type=non-native eps=0.002390 sigma=4.000000
pair_coeff 4 157 0.000000e+00 0.000000e+00 4.009755e+04 # SC2-SC81 type=non-native eps=0.002390 sigma=4.000000
pair_coeff 4 158 0.000000e+00 0.000000e+00 4.009755e+04 # SC2-CA82 type=non-native eps=0.002390 sigma=4.000000
pair_coeff 4 159 0.000000e+00 0.000000e+00 2.286802e+04 # SC2-SC82 type=non-native eps=0.002390 sigma=3.817121
pair_coeff 4 160 0.000000e+00 0.000000e+00 4.009755e+04 # SC2-CA83 type=non-native eps=0.002390 sigma=4.000000
pair_coeff 4 161 0.000000e+00 0.000000e+00 4.009755e+04 # SC2-CA84 type=non-native eps=0.002390 sigma=4.000000
[...]
 4788000    164.66275     101.0021   -7.1380272       34.992    39.455647     33.69248 
 4789000    187.52036    103.51098   -6.1981428     34.95416    40.249809    34.505152 
 4790000    180.78166     114.1341   -5.6724407    42.458137    39.987108      37.3613 
 4791000    179.77943     106.6038   -5.5473375    29.328498    47.093087    35.729548 
 4792000    177.89926    96.577905   -4.7381383    27.567332    36.357473    37.391239 
 4793000    197.30297    102.56263   -4.2258225    31.080867    39.734984      35.9726 
 4794000    177.96494    106.66241   -5.3062644    33.437568    43.390828    35.140274 
 4795000    176.00802    102.78456   -5.4102368    31.643301    42.813444    33.738055 
 4796000    174.94863    99.768899   -7.5899706    33.338071    42.052236    31.968562 
 4797000    163.85536    103.37381   -6.7697504    32.037324    45.492291    32.613941 
 4798000    189.23249     92.78794   -7.6281192    29.900472    36.064342    34.451246 
 4799000    188.95213    97.090396   -6.5238378     27.35854    40.575359    35.680335 
 4800000    173.00815    106.71696   -5.6323954    33.208686    43.151833    35.988835 
 4801000    166.12716    106.31275   -6.3894105    34.842702     41.08212    36.777335 
 4802000    188.98734    100.58036   -6.7246848    30.335457     40.40929    36.560299 
 4803000    190.14248     103.4602   -6.8352539    31.510725    45.392934      33.3918 
 4804000    180.61533    108.10269   -6.4457623      31.2805    49.119993    34.147963 
 4805000    179.14736    106.88369   -7.2861078    32.515727    48.898614    32.755461 
 4806000    190.62576    102.96788   -5.8854715    30.885095    44.819776    33.148478 
 4807000    175.88876    97.202601    -6.395501    31.779065    38.619919    33.199118 
 4808000    179.63179    100.05976   -5.9585221     31.13235    39.849259    35.036677 
 4809000    175.09619    103.10816   -5.7405905    33.182898    38.451773    37.214082 
 4810000     181.7125     106.1639    -6.733153    38.349141    37.246627    37.301287 
 4811000    174.87599    102.96663   -6.6405023    32.509233    42.370911    34.726988 
 4812000    176.08437    99.472613   -5.5940835    37.201184    34.596729    33.268783 
 4813000    161.07123    100.78955    -5.743725      30.9377    42.645691    32.949883 
 4814000    176.60886    96.832416   -6.2355809    31.079486    38.732995    33.255516 
 4815000    179.96032    101.37707   -6.0090157    42.819226    34.612177    29.954681 
 4816000    174.03956    95.778754   -5.6249589    37.437216    35.218358    28.748139 
 4817000     180.5511    100.17338   -6.6793416    32.389245    40.162988    34.300484 
 4818000    182.85182    97.188949    -6.926489     33.74127    38.056275    32.317893 
 4819000     182.9962    100.71372   -6.7045982    36.529861     41.21501    29.673448 
 4820000    176.53642    94.771573   -4.4890962    26.055724    41.673505    31.531439 
 4821000    170.16403    95.992463   -4.8979303    33.025978    33.576432    34.287983 
 4822000    192.69828    96.557776   -4.7239148    28.385428    35.806372     37.08989 
 4823000    195.28398    104.65631   -5.8538484    27.953849    43.759521    38.796786 
 4824000    195.78963    95.955692   -6.9884266    29.976802    37.250264    35.717053 
 4825000    188.77366    101.76832   -6.6597684    33.938722    38.496585    35.992785 
 4826000    184.04318    102.60987   -6.0493794    32.955994    42.421216    33.282041 
 4827000    184.64709    101.69284   -6.8497853    34.733552    35.230675    38.578394 
 4828000    184.35136    99.972547   -6.7120591    34.276163     36.13665    36.271793 
 4829000    172.79329    101.36787    -6.185957     32.24383    41.591255    33.718742 
 4830000    176.92024    105.17972   -5.1908884    36.107316    37.549633    36.713662 
 4831000    177.61337    112.34302   -4.5814684    39.168501    40.587065    37.168918 
 4832000    188.53905    108.91312   -7.4420434     34.57557    44.921909    36.857684 
 4833000    187.23097    102.19653   -8.0877264     33.83598     41.68196    34.766317 
 4834000    166.58448    104.69036   -6.7873256    30.245001    47.549024    33.683665 
 4835000    163.51305    99.673509   -6.4716941    31.575939    40.019136    34.550128 
 4836000    156.64248    107.56028   -4.7845839    37.259619     40.96658    34.118663 
 4837000    174.76987    94.565742   -7.0111226    29.720067    39.573575    32.283222 
 4838000    172.04591    95.391675   -6.2462684     29.39505    36.148467    36.094426 
 4839000    163.30003    96.184294   -5.7847515    35.293766    32.750743    33.924537 
 4840000    164.69604    92.235768   -5.6794576    27.355638    37.051954    33.507634 
 4841000    160.58558    103.90332   -5.1092401    32.747589     37.75812    38.506855 
 4842000    181.28809     107.8275   -4.1832944    34.126721    42.205766    35.678307 
 4843000    191.84438    116.73796     -4.63198    30.265636    50.075752    41.028547 
 4844000    174.79388    110.72559   -4.8749862    31.406081    41.455984    42.738512 
 4845000    197.36834    113.89387   -6.4983425    33.968412    46.005466    40.418339 
 4846000    169.93204    116.42457   -4.7464203    34.874919    44.701159    41.594914 
 4847000     174.5271    108.55817   -4.8343325    26.582713    48.570823    38.238972 
 4848000    187.13183    104.54556   -6.3123235    33.373908    38.027152    39.456826 
 4849000    183.65676    110.82613   -4.8336453    38.812168    39.673058    37.174551 
 4850000    169.93909    107.49559   -5.6108847    31.403431      48.6678    33.035243 
 4851000    184.35588    97.279224   -6.8683527    28.163072    40.305852    35.678653 
 4852000    171.42116    93.060639   -7.1343603     29.85061    39.083019    31.261369 
 4853000    176.41546    100.98511   -6.3996843    40.059092    36.669736    30.655971 
 4854000    170.49797     103.6232   -4.9695423    35.991468    38.599039    34.002239 
 4855000    163.83705    109.37375   -7.0099477    35.197172    48.297615    32.888908 
 4856000    167.19028    99.012413    -6.378827    29.949818    40.577566    34.863855 
 4857000    170.48652     94.05551   -7.7283868    32.772522    33.116041    35.895333 
 4858000    172.78722     99.43376   -7.3731795    37.093286    34.390265    35.323389 
 4859000    173.27268    104.17487   -6.5294536    28.982073    43.633126    38.089122 
 4860000    175.10421    108.14229   -3.9213582    34.040657    40.673815    37.349173 
 4861000    183.84349    109.58446   -4.0417766    32.944347    42.505891    38.176002 
 4862000    169.42156    104.95346   -3.5130079    28.322178    38.801718    41.342573 
 4863000    168.47304    109.56281   -3.5712084    32.425403    39.401514    41.307104 
 4864000    176.17204    103.96177   -5.0747965     36.54881     35.38786    37.099898 
 4865000    177.89392    102.08314   -4.5092619    28.597351     39.65798    38.337071 
 4866000    202.67002    103.47103   -5.2816632    33.022383     38.20246    37.527848 
 4867000    167.64071    107.77414   -4.6672147    35.251462    41.639729    35.550164 
 4868000    183.62793    95.861419   -4.4767941    29.089236    40.053291    31.195687 
 4869000    173.69188    111.03584   -5.0825537    36.838142    43.486726    35.793528 
 4870000    167.55126    108.18491   -5.7444669     37.07522     40.01969     36.83447 
 4871000    163.29216     104.8667   -6.1897882    32.256935    42.019098    36.780455 
 4872000    181.63766    96.210291   -5.2672511    27.009059     37.77949    36.688993 
 4873000    181.47934    99.941591   -6.4233332    27.957778    40.570539    37.836608 
 4874000    173.29935    106.44309   -5.9788347    29.488029      46.8782    36.055699 
 4875000     179.3643     96.49004    -6.744452    31.281748    37.710499    34.242246 
 4876000     180.2691    98.055252   -7.2610401    28.781218    42.745803    33.789271 
 4877000     187.3613    96.006349   -6.8916162    39.284495    31.710806    31.902664 
 4878000    197.01612    95.878349   -6.2629245    30.290135    39.920289    31.930849 
 4879000    190.22011    102.00095   -6.1226285    29.540209    44.493316     34.09005 
 4880000    189.65966    102.81254   -5.9973132    31.939465    41.126202     35.74419 
 4881000    195.90901    100.23896   -4.7800922    29.673183    39.093169    36.252696 
 4882000        201.5    96.327398   -6.2913293    26.990694    40.403732    35.224301 
 4883000    181.02457    104.20359   -5.7809786    32.822893    44.607219    32.554452 
 4884000    171.60174    95.711849   -5.0106654    29.565902    37.545179    33.611433 
 4885000    178.39164    102.38931   -4.8472096    25.943292    42.555404     38.73782 
 4886000    174.07095    104.17747    -4.848781    26.852254    45.974771    36.199227 
 4887000    170.98446    106.82365    -6.085183    31.531718    45.965663    35.411457 
 4888000    198.37823    99.814381   -6.5243193    28.796759     44.03396    33.507981 
 4889000    177.93285    106.12314   -4.7623183    30.665319    42.487236      37.7329 
 4890000    184.34754    104.52807   -4.3539886    29.248314    42.418611    37.215135 
 4891000    177.99775     107.9876   -3.0178017    32.240188    41.672623     37.09259 
 4892000    182.61239    111.30154   -4.4178215    32.947589     44.77672    37.995048 
 4893000     205.1537    99.820445   -4.6426603     28.25977    41.666278    34.537058 
 4894000    186.63884    108.40824   -3.4989853    31.646252     45.87178    34.389198 
 4895000    179.94511    98.711617   -4.8135642    29.166923    40.672481    33.685777 
 4896000    182.88392    105.47724   -4.1697547    33.156939    43.650673    32.839384 
 4897000    174.92325    102.00142   -5.8723862    35.853498    38.322635    33.697671 
 4898000    180.66717    105.91427   -7.8557411    37.956217    40.718475    35.095321 
 4899000    175.04758    104.33542   -6.8364514    33.009451    41.861629    36.300788 
 4900000    195.90448    100.21656   -5.1147459    28.449046    43.498839    33.383425 
 4901000    177.61473    107.24898   -6.0587525    33.507054     46.95503    32.845648 
 4902000    182.12562    106.47126   -4.3501276    30.224417     46.31906    34.277911 
 4903000    182.73055    101.34179   -5.5293422    33.835284    39.784983    33.250868 
 4904000    176.38625    105.52878   -5.3811719    33.682167    44.665559    32.562226 
 4905000    183.34279    95.709343   -6.6187993     36.03647    35.620643    30.671029 
 4906000    173.28124    98.968882   -5.5694932    36.582344    34.913126    33.042904 
 4907000    161.20497    98.891464   -3.5912576    34.644848    38.285351    29.552523 
 4908000     150.9684    97.404306   -6.6277782    36.730189    34.463541    32.838354 
 4909000    164.13956    99.201254   -6.8318955    32.134443    41.940829    31.957879 
 4910000    162.98583    95.140094   -6.1339357    36.315575    35.337825    29.620629 
 4911000    157.05874    97.082414   -7.1153315    32.865872    40.071659    31.260214 
 4912000    196.01512    87.833543   -7.4575336    25.931759    35.755504    33.603813 
 4913000    169.02436    100.20971   -8.2862378    34.832285    41.416586    32.247078 
 4914000    195.81263    95.447959   -6.1283328    34.273719    36.565322    30.737251 
 4915000    191.22129    106.78384   -5.9017831    31.782253      44.5279     36.37547 
 4916000    177.02319    109.97391   -4.5239624    36.642705     42.26296    35.592203 
 4917000    176.54255    109.32294   -5.0486827     36.00214    42.276336    36.093144 
 4918000     188.4305    106.39152   -5.9398759    29.799773    44.166016    38.365611 
 4919000    162.50297    107.17052   -4.8359366    33.304707    41.595171    37.106583 
 4920000    189.05091    105.86886   -5.0829497    35.310359    39.930779    35.710669 
 4921000    163.38917    103.68552   -6.4154524    33.407692    42.671242    34.022035 
 4922000    166.38462    109.61001   -5.6329806    37.549065    41.109664    36.584259 
 4923000    168.15995    102.88759   -4.7142675    31.265276     41.20847    35.128115 
 4924000    173.27503    106.71379   -6.9599194    38.622324    37.362445    37.688939 
 4925000     174.0564    102.80358   -4.8876614    31.035931    39.984109    36.671197 
 4926000    181.25675    102.05133   -6.0752451    32.740408    38.832715    36.553452 
 4927000    178.64787    102.06981   -4.5927936    33.204623    39.847878    33.610102 
 4928000    191.83009    105.49133   -5.3036412     31.20245    47.726468    31.866052 
 4929000    197.94464    99.053316   -5.2192049    31.221448    40.482886    32.568187 
 4930000    180.37715    96.765474   -5.8369071    31.864341    38.197855    32.540184 
 4931000    182.65572     100.3971    -4.071861    32.052334    38.109268     34.30736 
 4932000    176.93304    105.58557   -4.6825305    30.476626    44.411487    35.379989 
 4933000    191.15515    105.11198   -4.6555162    33.310539    40.054504    36.402456 
 4934000     199.0274    110.20664   -4.2858947    36.687675    42.310038    35.494818 
 4935000    186.54154    119.01766   -5.0567995    40.364981    48.152816    35.556664 
 4936000    194.54363    109.47178   -3.8782436    33.695982    42.312976    37.341064 
 4937000    173.08854    115.10776   -3.2790967     38.14403     41.97494    38.267888 
 4938000    171.01533    116.29368   -3.2942603    31.789734    49.013725    38.784484 
 4939000    171.94896    108.94827   -5.0490219    32.644058      44.5192    36.834034 
 4940000    177.44621    97.860129   -4.8874596    26.635693     43.11448    32.997415 
 4941000    179.13908    104.74049   -5.6437474    31.914357    44.532713    33.937173 
 4942000    182.21537     109.7533   -5.4888031    35.619529    43.781245    35.841333 
 4943000    182.36077    107.88261    -4.134164    34.144672    43.650897    34.221202 
 4944000    176.80754    110.43864   -2.3543356    36.932191    40.419233    35.441551 
 4945000    181.87779    98.780007   -5.7076054    32.687532    38.923819    32.876262 
 4946000    198.23268    95.972182   -6.4984832    31.210398     39.19221    32.068058 
 4947000    180.73485    102.28378   -5.4401306    34.297159    40.624931    32.801818 
 4948000    173.47795    105.79518   -4.6811837    36.557591    39.386297    34.532475 
 4949000    182.32718    99.301163    -4.877483    29.258463    38.697583      36.2226 
 4950000    186.93414     102.0564   -5.4740499    33.542665    39.694298    34.293484 
 4951000    200.69692    101.56677   -6.0682671    29.669236    44.320522    33.645275 
 4952000    192.66296    107.36539   -4.9485268    32.040236    44.603433     35.67025 
 4953000    173.49112    117.56442   -5.3621391    37.316296    45.172052    40.438208 
 4954000    174.26193    110.10413    -4.091726    32.828331    44.277099    37.090428 
 4955000    180.07973    103.79944   -5.3968267    31.921442    40.650998    36.623832 
 4956000    182.91891    105.19272   -4.7221882    36.683847    39.471006    33.760051 
 4957000    176.29503    101.48852   -4.9897596    34.234229     40.65952    31.584535 
 4958000    186.56775    97.438422   -6.2912754    31.333628    39.456667    32.939402 
 4959000    172.84384     106.5127   -5.9023266    38.457612      41.4498    32.507617 
 4960000    169.39302    99.745717   -6.0623744    35.073108    37.630012    33.104972 
 4961000    164.63363    97.230775   -5.5841028    33.519578    38.757617    30.537683 
 4962000    163.98631    97.072625    -5.749894    29.132045    38.292883    35.397591 
 4963000    177.16139    101.57752   -5.6367588    29.275505    43.209857    34.728913 
 4964000    197.93288    105.35526   -6.5814328    37.988657     39.57803    34.370006 
 4965000    206.95742     106.0983   -6.5443315     31.16094    43.755163    37.726529 
 4966000     176.8057    114.93795   -5.2682875    44.187338    39.210737    36.808157 
 4967000    194.95869    104.11626   -5.9474936    29.315863    45.280304    35.467589 
 4968000    195.27205    111.30392   -6.7113634    38.488489     43.59766    35.929137 
 4969000    188.39451    101.99178   -6.2679122    26.853832    47.940969     33.46489 
 4970000    168.74217    107.88557   -7.5524386    31.597788    51.018077    32.822145 
 4971000    171.89907    106.12073   -7.7111975    36.699227    39.939679    37.193019 
 4972000    170.30436    105.09403   -6.5873351    35.874388    40.281542    35.525435 
 4973000    179.59414    98.192212   -6.0071293    29.305177    40.830455    34.063709 
 4974000    174.28672    103.86027   -6.0519963    30.830433    40.807802    38.274028 
 4975000    177.18717    93.495083   -5.3922435    28.579052    31.587126    38.721148 
 4976000    168.78442    109.36477   -7.4815066    32.654493    46.964508    37.227273 
 4977000    182.59083    97.726827   -5.9969029     26.20573    38.600103    38.917896 
 4978000    163.34392    117.45228    -5.042948    29.986249    52.864775    39.644209 
 4979000    184.18971    104.15428    -4.305209    30.411478    42.898144    35.149867 
 4980000    166.00776    112.49391   -3.3473652    35.019067    43.622453    37.199752 
 4981000    174.10144    107.52264   -4.9666052    36.062793    40.234797    36.191651 
 4982000     181.5673    102.78009   -4.3971857    29.170827    39.905733    38.100715 
 4983000    186.46735      105.524   -5.6985393    30.698075    44.725351    35.799113 
 4984000    181.99047    105.23162    -5.759625    34.076958    40.725755    36.188528 
 4985000    186.93238    110.85347   -5.8960252     31.35701    49.888743    35.503743 
 4986000    181.17014    103.48752   -4.8594074    28.540614    42.812176    36.994133 
 4987000    172.33342    108.17108   -4.9724894     36.12037    40.136739     36.88646 
 4988000    170.84434      99.4089   -5.7021241    30.350008    38.360081    36.400935 
 4989000    186.26492    97.483576     -5.53721    24.751508    42.052853    36.216425 
 4990000    170.64066    107.13666   -5.9200457    31.817248     46.80084    34.438617 
 4991000    171.07448     105.2358   -6.3311035    29.989955    44.988877    36.588069 
 4992000    193.57336    113.66872   -5.0417451    29.800046    49.383466    39.526951 
 4993000     178.7469    118.92696   -4.5014431    34.965107    47.126288    41.337003 
 4994000    187.28616    110.06326   -5.4061551    32.544055    46.584417    36.340947 
 4995000    183.18311    108.35259   -5.1610612    31.685244    45.263972    36.564437 
 4996000    182.20205    106.71553    -5.896117     30.76653    44.257789    37.587325 
 4997000    181.29091    107.06946   -4.3651807    31.270433    41.539633    38.624576 
 4998000    179.88165    106.78698   -4.4619454    35.731164    39.156983    36.360783 
 4999000    171.79414    105.24998   -3.7933252    33.699784    37.652532    37.690993 
 5000000    179.23371    100.83752   -5.2136325    33.090363    37.611405    35.349381 
Loop time of 466.273 on 4 procs for 5000000 steps with 185 atoms

Performance: 463.248 ns/day, 0.052 hours/ns, 10723.322 timesteps/s
99.5% CPU use with 4 MPI tasks x no OpenMP threads

MPI task timing breakdown:
Section |  min time  |  avg time  |  max time  |%varavg| %total
---------------------------------------------------------------
Pair    | 155.85     | 165.22     | 181.31     |  76.7 | 35.43
Bond    | 73.013     | 85.775     | 91.565     |  80.2 | 18.40
Neigh   | 3.9326     | 3.9501     | 3.9678     |   0.6 |  0.85
Comm    | 153.45     | 173.45     | 190.66     | 102.3 | 37.20
Output  | 0.2918     | 0.40469    | 0.73903    |  30.3 |  0.09
Modify  | 27.271     | 31.199     | 35.573     |  53.0 |  6.69
Other   |            | 6.274      |            |       |  1.35

Nlocal:    46.25 ave 77 max 20 min
Histogram: 2 0 0 0 0 0 0 0 1 1
Nghost:    138.75 ave 165 max 108 min
Histogram: 1 1 0 0 0 0 0 0 0 2
Neighs:    3011 ave 5013 max 1396 min
Histogram: 2 0 0 0 0 0 0 1 0 1

Total # of neighbors = 12044
Ave neighs/atom = 65.1027
Ave special neighs/atom = 8.04324
Neighbor list builds = 34668
Dangerous builds = 0
clear

next t
next a
jump SELF loopstart
# set logfile
log		log.run.$t
log		log.run.185
