LAMMPS (10 Feb 2016)
#Set the temperature variable
variable a loop 21
variable t index 100 105 110 115 120 125 130 135 140 145 150 155 160 165 170 175 180 185 190 195 200

label loopstart
# set logfile
log		log.run.$t
log		log.run.100
