
# Box and units  (use LJ units and periodic boundaries)
units		real
# so:
#    mass = grams/mole		# same in gromacs
#    distance = Angstroms	# nm in gromacs
#    time = femtoseconds	# ps in gromacs
#    energy = Kcal/mole		# kcal/mol in gromacs
#    velocity = Angstroms/femtosecond	# ...
#    force = Kcal/mole-Angstrom	# ...
#    temperature = Kelvin	# same in gromacs
#    pressure = atmospheres	# same in gromacs
#    dynamic viscosity = Poise	# no idea
dimension	3
atom_style	molecular
boundary	p p p


# Pair interactions require lists of neighbours to be calculated
neighbor	5.0 nsq
neigh_modify	every 1 delay 10 check yes

# define interactions
pair_style	lj12106/cut  30.0 # same as in md_sample.mdp from the smog-model web-tool
pair_modify	shift yes
bond_style	harmonic
angle_style	harmonic
dihedral_style	charmm
special_bonds	lj 0.0 0.0 0.0 angle yes dihedral yes # 3 exclusions

# READ "start" data file
read_data ../../protein/ranaspumin/4-coarsegrained/data.input
  orthogonal box = (-200 -200 -200) to (200 200 200)
  1 by 2 by 2 MPI processor grid
  reading atoms ...
  185 atoms
  scanning bonds ...
  2 = max bonds/atom
  scanning angles ...
  3 = max angles/atom
  scanning dihedrals ...
  8 = max dihedrals/atom
  reading bonds ...
  185 bonds
  reading angles ...
  270 angles
  reading dihedrals ...
  578 dihedrals
  3 = max # of 1-2 neighbors
  5 = max # of 1-3 neighbors
  10 = max # of 1-4 neighbors
  544 = # of 1-3 neighbors before angle trim
  540 = # of 1-3 neighbors after angle trim
  991 = # of 1-4 neighbors before dihedral trim
  578 = # of 1-4 neighbors after dihedral trim
  11 = max # of special neighbors

# define coeffs
include ../../protein/ranaspumin/4-coarsegrained/settings.param
pair_coeff 1 1 0.000000e+00 0.000000e+00 4.009755e+04 # CA1-CA1 type=non-native eps=0.002390 sigma=4.000000
pair_coeff 1 2 0.000000e+00 0.000000e+00 4.009755e+04 # CA1-SC1 type=non-native eps=0.002390 sigma=4.000000
pair_coeff 1 3 0.000000e+00 0.000000e+00 4.009755e+04 # CA1-CA2 type=non-native eps=0.002390 sigma=4.000000
pair_coeff 1 4 0.000000e+00 0.000000e+00 4.009755e+04 # CA1-SC2 type=non-native eps=0.002390 sigma=4.000000
pair_coeff 1 5 0.000000e+00 0.000000e+00 4.009755e+04 # CA1-CA3 type=non-native eps=0.002390 sigma=4.000000
pair_coeff 1 6 0.000000e+00 0.000000e+00 4.009755e+04 # CA1-SC3 type=non-native eps=0.002390 sigma=4.000000
pair_coeff 1 7 0.000000e+00 0.000000e+00 4.009755e+04 # CA1-CA4 type=non-native eps=0.002390 sigma=4.000000
pair_coeff 1 8 0.000000e+00 0.000000e+00 4.009755e+04 # CA1-SC4 type=non-native eps=0.002390 sigma=4.000000
pair_coeff 1 9 0.000000e+00 0.000000e+00 4.009755e+04 # CA1-CA5 type=non-native eps=0.002390 sigma=4.000000
pair_coeff 1 10 0.000000e+00 0.000000e+00 4.009755e+04 # CA1-CA6 type=non-native eps=0.002390 sigma=4.000000
pair_coeff 1 11 0.000000e+00 0.000000e+00 4.009755e+04 # CA1-SC6 type=non-native eps=0.002390 sigma=4.000000
pair_coeff 1 12 0.000000e+00 0.000000e+00 4.009755e+04 # CA1-CA7 type=non-native eps=0.002390 sigma=4.000000
pair_coeff 1 13 0.000000e+00 0.000000e+00 4.009755e+04 # CA1-SC7 type=non-native eps=0.002390 sigma=4.000000
pair_coeff 1 14 0.000000e+00 0.000000e+00 4.009755e+04 # CA1-CA8 type=non-native eps=0.002390 sigma=4.000000
pair_coeff 1 15 0.000000e+00 0.000000e+00 4.009755e+04 # CA1-SC8 type=non-native eps=0.002390 sigma=4.000000
pair_coeff 1 16 0.000000e+00 0.000000e+00 4.009755e+04 # CA1-CA9 type=non-native eps=0.002390 sigma=4.000000
pair_coeff 1 17 0.000000e+00 0.000000e+00 6.317440e+04 # CA1-SC9 type=non-native eps=0.002390 sigma=4.154435
pair_coeff 1 18 0.000000e+00 0.000000e+00 4.009755e+04 # CA1-CA10 type=non-native eps=0.002390 sigma=4.000000
pair_coeff 1 19 0.000000e+00 0.000000e+00 4.009755e+04 # CA1-SC10 type=non-native eps=0.002390 sigma=4.000000
pair_coeff 1 20 0.000000e+00 0.000000e+00 4.009755e+04 # CA1-CA11 type=non-native eps=0.002390 sigma=4.000000
pair_coeff 1 21 0.000000e+00 0.000000e+00 6.317440e+04 # CA1-SC11 type=non-native eps=0.002390 sigma=4.154435
pair_coeff 1 22 0.000000e+00 0.000000e+00 4.009755e+04 # CA1-CA12 type=non-native eps=0.002390 sigma=4.000000
pair_coeff 1 23 0.000000e+00 0.000000e+00 4.009755e+04 # CA1-SC12 type=non-native eps=0.002390 sigma=4.000000
pair_coeff 1 24 0.000000e+00 0.000000e+00 4.009755e+04 # CA1-CA13 type=non-native eps=0.002390 sigma=4.000000
pair_coeff 1 25 0.000000e+00 0.000000e+00 6.317440e+04 # CA1-SC13 type=non-native eps=0.002390 sigma=4.154435
pair_coeff 1 26 0.000000e+00 0.000000e+00 4.009755e+04 # CA1-CA14 type=non-native eps=0.002390 sigma=4.000000
pair_coeff 1 27 0.000000e+00 0.000000e+00 4.009755e+04 # CA1-SC14 type=non-native eps=0.002390 sigma=4.000000
pair_coeff 1 28 0.000000e+00 0.000000e+00 4.009755e+04 # CA1-CA15 type=non-native eps=0.002390 sigma=4.000000
pair_coeff 1 29 0.000000e+00 0.000000e+00 2.286802e+04 # CA1-SC15 type=non-native eps=0.002390 sigma=3.817121
pair_coeff 1 30 0.000000e+00 0.000000e+00 4.009755e+04 # CA1-CA16 type=non-native eps=0.002390 sigma=4.000000
pair_coeff 1 31 0.000000e+00 0.000000e+00 2.286802e+04 # CA1-SC16 type=non-native eps=0.002390 sigma=3.817121
pair_coeff 1 32 0.000000e+00 0.000000e+00 4.009755e+04 # CA1-CA17 type=non-native eps=0.002390 sigma=4.000000
pair_coeff 1 33 0.000000e+00 0.000000e+00 4.009755e+04 # CA1-SC17 type=non-native eps=0.002390 sigma=4.000000
pair_coeff 1 34 0.000000e+00 0.000000e+00 4.009755e+04 # CA1-CA18 type=non-native eps=0.002390 sigma=4.000000
pair_coeff 1 35 0.000000e+00 0.000000e+00 4.009755e+04 # CA1-SC18 type=non-native eps=0.002390 sigma=4.000000
pair_coeff 1 36 0.000000e+00 0.000000e+00 4.009755e+04 # CA1-CA19 type=non-native eps=0.002390 sigma=4.000000
pair_coeff 1 37 0.000000e+00 0.000000e+00 4.009755e+04 # CA1-SC19 type=non-native eps=0.002390 sigma=4.000000
pair_coeff 1 38 0.000000e+00 0.000000e+00 4.009755e+04 # CA1-CA20 type=non-native eps=0.002390 sigma=4.000000
pair_coeff 1 39 0.000000e+00 0.000000e+00 4.009755e+04 # CA1-SC20 type=non-native eps=0.002390 sigma=4.000000
pair_coeff 1 40 0.000000e+00 0.000000e+00 4.009755e+04 # CA1-CA21 type=non-native eps=0.002390 sigma=4.000000
pair_coeff 1 41 0.000000e+00 0.000000e+00 1.293687e+05 # CA1-SC21 type=non-native eps=0.002390 sigma=4.410142
pair_coeff 1 42 0.000000e+00 0.000000e+00 4.009755e+04 # CA1-CA22 type=non-native eps=0.002390 sigma=4.000000
pair_coeff 1 43 0.000000e+00 0.000000e+00 4.009755e+04 # CA1-CA23 type=non-native eps=0.002390 sigma=4.000000
pair_coeff 1 44 0.000000e+00 0.000000e+00 6.317440e+04 # CA1-SC23 type=non-native eps=0.002390 sigma=4.154435
pair_coeff 1 45 0.000000e+00 0.000000e+00 4.009755e+04 # CA1-CA24 type=non-native eps=0.002390 sigma=4.000000
pair_coeff 1 46 0.000000e+00 0.000000e+00 6.317440e+04 # CA1-SC24 type=non-native eps=0.002390 sigma=4.154435
pair_coeff 1 47 0.000000e+00 0.000000e+00 4.009755e+04 # CA1-CA25 type=non-native eps=0.002390 sigma=4.000000
pair_coeff 1 48 0.000000e+00 0.000000e+00 4.009755e+04 # CA1-SC25 type=non-native eps=0.002390 sigma=4.000000
pair_coeff 1 49 0.000000e+00 0.000000e+00 4.009755e+04 # CA1-CA26 type=non-native eps=0.002390 sigma=4.000000
pair_coeff 1 50 0.000000e+00 0.000000e+00 4.009755e+04 # CA1-SC26 type=non-native eps=0.002390 sigma=4.000000
pair_coeff 1 51 0.000000e+00 0.000000e+00 4.009755e+04 # CA1-CA27 type=non-native eps=0.002390 sigma=4.000000
pair_coeff 1 52 0.000000e+00 0.000000e+00 4.009755e+04 # CA1-SC27 type=non-native eps=0.002390 sigma=4.000000
pair_coeff 1 53 0.000000e+00 0.000000e+00 4.009755e+04 # CA1-CA28 type=non-native eps=0.002390 sigma=4.000000
pair_coeff 1 54 0.000000e+00 0.000000e+00 6.317440e+04 # CA1-SC28 type=non-native eps=0.002390 sigma=4.154435
pair_coeff 1 55 0.000000e+00 0.000000e+00 4.009755e+04 # CA1-CA29 type=non-native eps=0.002390 sigma=4.000000
pair_coeff 1 56 -1.088004e+05 0.000000e+00 1.238235e+10 # CA1-SC29 type=native eps=0.239000 sigma=7.813886
pair_coeff 1 57 0.000000e+00 0.000000e+00 4.009755e+04 # CA1-CA30 type=non-native eps=0.002390 sigma=4.000000
pair_coeff 1 58 0.000000e+00 0.000000e+00 6.317440e+04 # CA1-SC30 type=non-native eps=0.002390 sigma=4.154435
pair_coeff 1 59 0.000000e+00 0.000000e+00 4.009755e+04 # CA1-CA31 type=non-native eps=0.002390 sigma=4.000000
pair_coeff 1 60 0.000000e+00 0.000000e+00 4.009755e+04 # CA1-SC31 type=non-native eps=0.002390 sigma=4.000000
pair_coeff 1 61 0.000000e+00 0.000000e+00 4.009755e+04 # CA1-CA32 type=non-native eps=0.002390 sigma=4.000000
pair_coeff 1 62 0.000000e+00 0.000000e+00 4.009755e+04 # CA1-SC32 type=non-native eps=0.002390 sigma=4.000000
pair_coeff 1 63 0.000000e+00 0.000000e+00 4.009755e+04 # CA1-CA33 type=non-native eps=0.002390 sigma=4.000000
pair_coeff 1 64 0.000000e+00 0.000000e+00 4.009755e+04 # CA1-SC33 type=non-native eps=0.002390 sigma=4.000000
pair_coeff 1 65 0.000000e+00 0.000000e+00 4.009755e+04 # CA1-CA34 type=non-native eps=0.002390 sigma=4.000000
pair_coeff 1 66 0.000000e+00 0.000000e+00 6.317440e+04 # CA1-SC34 type=non-native eps=0.002390 sigma=4.154435
pair_coeff 1 67 0.000000e+00 0.000000e+00 4.009755e+04 # CA1-CA35 type=non-native eps=0.002390 sigma=4.000000
pair_coeff 1 68 0.000000e+00 0.000000e+00 4.009755e+04 # CA1-SC35 type=non-native eps=0.002390 sigma=4.000000
pair_coeff 1 69 0.000000e+00 0.000000e+00 4.009755e+04 # CA1-CA36 type=non-native eps=0.002390 sigma=4.000000
pair_coeff 1 70 0.000000e+00 0.000000e+00 6.317440e+04 # CA1-SC36 type=non-native eps=0.002390 sigma=4.154435
pair_coeff 1 71 0.000000e+00 0.000000e+00 4.009755e+04 # CA1-CA37 type=non-native eps=0.002390 sigma=4.000000
pair_coeff 1 72 0.000000e+00 0.000000e+00 1.737309e+05 # CA1-SC37 type=non-native eps=0.002390 sigma=4.519842
pair_coeff 1 73 0.000000e+00 0.000000e+00 4.009755e+04 # CA1-CA38 type=non-native eps=0.002390 sigma=4.000000
pair_coeff 1 74 0.000000e+00 0.000000e+00 4.009755e+04 # CA1-CA39 type=non-native eps=0.002390 sigma=4.000000
pair_coeff 1 75 0.000000e+00 0.000000e+00 2.286802e+04 # CA1-SC39 type=non-native eps=0.002390 sigma=3.817121
pair_coeff 1 76 0.000000e+00 0.000000e+00 4.009755e+04 # CA1-CA40 type=non-native eps=0.002390 sigma=4.000000
pair_coeff 1 77 0.000000e+00 0.000000e+00 4.009755e+04 # CA1-SC40 type=non-native eps=0.002390 sigma=4.000000
pair_coeff 1 78 0.000000e+00 0.000000e+00 4.009755e+04 # CA1-CA41 type=non-native eps=0.002390 sigma=4.000000
pair_coeff 1 79 0.000000e+00 0.000000e+00 2.286802e+04 # CA1-SC41 type=non-native eps=0.002390 sigma=3.817121
pair_coeff 1 80 0.000000e+00 0.000000e+00 4.009755e+04 # CA1-CA42 type=non-native eps=0.002390 sigma=4.000000
pair_coeff 1 81 0.000000e+00 0.000000e+00 6.317440e+04 # CA1-SC42 type=non-native eps=0.002390 sigma=4.154435
pair_coeff 1 82 0.000000e+00 0.000000e+00 4.009755e+04 # CA1-CA43 type=non-native eps=0.002390 sigma=4.000000
pair_coeff 1 83 0.000000e+00 0.000000e+00 4.009755e+04 # CA1-SC43 type=non-native eps=0.002390 sigma=4.000000
pair_coeff 1 84 0.000000e+00 0.000000e+00 4.009755e+04 # CA1-CA44 type=non-native eps=0.002390 sigma=4.000000
pair_coeff 1 85 0.000000e+00 0.000000e+00 4.009755e+04 # CA1-SC44 type=non-native eps=0.002390 sigma=4.000000
pair_coeff 1 86 0.000000e+00 0.000000e+00 4.009755e+04 # CA1-CA45 type=non-native eps=0.002390 sigma=4.000000
pair_coeff 1 87 0.000000e+00 0.000000e+00 6.317440e+04 # CA1-SC45 type=non-native eps=0.002390 sigma=4.154435
pair_coeff 1 88 0.000000e+00 0.000000e+00 4.009755e+04 # CA1-CA46 type=non-native eps=0.002390 sigma=4.000000
pair_coeff 1 89 0.000000e+00 0.000000e+00 4.009755e+04 # CA1-SC46 type=non-native eps=0.002390 sigma=4.000000
pair_coeff 1 90 0.000000e+00 0.000000e+00 4.009755e+04 # CA1-CA47 type=non-native eps=0.002390 sigma=4.000000
pair_coeff 1 91 0.000000e+00 0.000000e+00 4.009755e+04 # CA1-SC47 type=non-native eps=0.002390 sigma=4.000000
pair_coeff 1 92 0.000000e+00 0.000000e+00 4.009755e+04 # CA1-CA48 type=non-native eps=0.002390 sigma=4.000000
pair_coeff 1 93 0.000000e+00 0.000000e+00 6.317440e+04 # CA1-SC48 type=non-native eps=0.002390 sigma=4.154435
pair_coeff 1 94 0.000000e+00 0.000000e+00 4.009755e+04 # CA1-CA49 type=non-native eps=0.002390 sigma=4.000000
pair_coeff 1 95 0.000000e+00 0.000000e+00 2.286802e+04 # CA1-SC49 type=non-native eps=0.002390 sigma=3.817121
pair_coeff 1 96 0.000000e+00 0.000000e+00 4.009755e+04 # CA1-CA50 type=non-native eps=0.002390 sigma=4.000000
pair_coeff 1 97 0.000000e+00 0.000000e+00 1.085818e+04 # CA1-SC50 type=non-native eps=0.002390 sigma=3.587401
pair_coeff 1 98 0.000000e+00 0.000000e+00 4.009755e+04 # CA1-CA51 type=non-native eps=0.002390 sigma=4.000000
pair_coeff 1 99 0.000000e+00 0.000000e+00 6.317440e+04 # CA1-SC51 type=non-native eps=0.002390 sigma=4.154435
pair_coeff 1 100 0.000000e+00 0.000000e+00 4.009755e+04 # CA1-CA52 type=non-native eps=0.002390 sigma=4.000000
pair_coeff 1 101 0.000000e+00 0.000000e+00 4.009755e+04 # CA1-SC52 type=non-native eps=0.002390 sigma=4.000000
pair_coeff 1 102 0.000000e+00 0.000000e+00 4.009755e+04 # CA1-CA53 type=non-native eps=0.002390 sigma=4.000000
pair_coeff 1 103 0.000000e+00 0.000000e+00 6.317440e+04 # CA1-SC53 type=non-native eps=0.002390 sigma=4.154435
pair_coeff 1 104 0.000000e+00 0.000000e+00 4.009755e+04 # CA1-CA54 type=non-native eps=0.002390 sigma=4.000000
pair_coeff 1 105 0.000000e+00 0.000000e+00 1.293687e+05 # CA1-SC54 type=non-native eps=0.002390 sigma=4.410142
pair_coeff 1 106 0.000000e+00 0.000000e+00 4.009755e+04 # CA1-CA55 type=non-native eps=0.002390 sigma=4.000000
pair_coeff 1 107 0.000000e+00 0.000000e+00 1.293687e+05 # CA1-SC55 type=non-native eps=0.002390 sigma=4.410142
pair_coeff 1 108 0.000000e+00 0.000000e+00 4.009755e+04 # CA1-CA56 type=non-native eps=0.002390 sigma=4.000000
pair_coeff 1 109 0.000000e+00 0.000000e+00 1.737309e+05 # CA1-SC56 type=non-native eps=0.002390 sigma=4.519842
pair_coeff 1 110 0.000000e+00 0.000000e+00 4.009755e+04 # CA1-CA57 type=non-native eps=0.002390 sigma=4.000000
pair_coeff 1 111 0.000000e+00 0.000000e+00 1.737309e+05 # CA1-SC57 type=non-native eps=0.002390 sigma=4.519842
pair_coeff 1 112 0.000000e+00 0.000000e+00 4.009755e+04 # CA1-CA58 type=non-native eps=0.002390 sigma=4.000000
pair_coeff 1 113 0.000000e+00 0.000000e+00 2.286802e+04 # CA1-SC58 type=non-native eps=0.002390 sigma=3.817121
pair_coeff 1 114 0.000000e+00 0.000000e+00 4.009755e+04 # CA1-CA59 type=non-native eps=0.002390 sigma=4.000000
pair_coeff 1 115 0.000000e+00 0.000000e+00 1.085818e+04 # CA1-SC59 type=non-native eps=0.002390 sigma=3.587401
pair_coeff 1 116 0.000000e+00 0.000000e+00 4.009755e+04 # CA1-CA60 type=non-native eps=0.002390 sigma=4.000000
pair_coeff 1 117 0.000000e+00 0.000000e+00 2.286802e+04 # CA1-SC60 type=non-native eps=0.002390 sigma=3.817121
pair_coeff 1 118 0.000000e+00 0.000000e+00 4.009755e+04 # CA1-CA61 type=non-native eps=0.002390 sigma=4.000000
pair_coeff 1 119 0.000000e+00 0.000000e+00 4.009755e+04 # CA1-SC61 type=non-native eps=0.002390 sigma=4.000000
pair_coeff 1 120 0.000000e+00 0.000000e+00 4.009755e+04 # CA1-CA62 type=non-native eps=0.002390 sigma=4.000000
pair_coeff 1 121 0.000000e+00 0.000000e+00 3.442571e+03 # CA1-SC62 type=non-native eps=0.002390 sigma=3.259921
pair_coeff 1 122 0.000000e+00 0.000000e+00 4.009755e+04 # CA1-CA63 type=non-native eps=0.002390 sigma=4.000000
pair_coeff 1 123 0.000000e+00 0.000000e+00 4.009755e+04 # CA1-CA64 type=non-native eps=0.002390 sigma=4.000000
pair_coeff 1 124 0.000000e+00 0.000000e+00 4.009755e+04 # CA1-SC64 type=non-native eps=0.002390 sigma=4.000000
pair_coeff 1 125 0.000000e+00 0.000000e+00 4.009755e+04 # CA1-CA65 type=non-native eps=0.002390 sigma=4.000000
pair_coeff 1 126 0.000000e+00 0.000000e+00 4.009755e+04 # CA1-CA66 type=non-native eps=0.002390 sigma=4.000000
pair_coeff 1 127 0.000000e+00 0.000000e+00 6.317440e+04 # CA1-SC66 type=non-native eps=0.002390 sigma=4.154435
pair_coeff 1 128 0.000000e+00 0.000000e+00 4.009755e+04 # CA1-CA67 type=non-native eps=0.002390 sigma=4.000000
pair_coeff 1 129 0.000000e+00 0.000000e+00 6.317440e+04 # CA1-SC67 type=non-native eps=0.002390 sigma=4.154435
pair_coeff 1 130 0.000000e+00 0.000000e+00 4.009755e+04 # CA1-CA68 type=non-native eps=0.002390 sigma=4.000000
pair_coeff 1 131 0.000000e+00 0.000000e+00 1.085818e+04 # CA1-SC68 type=non-native eps=0.002390 sigma=3.587401
pair_coeff 1 132 0.000000e+00 0.000000e+00 4.009755e+04 # CA1-CA69 type=non-native eps=0.002390 sigma=4.000000
pair_coeff 1 133 0.000000e+00 0.000000e+00 6.317440e+04 # CA1-SC69 type=non-native eps=0.002390 sigma=4.154435
pair_coeff 1 134 0.000000e+00 0.000000e+00 4.009755e+04 # CA1-CA70 type=non-native eps=0.002390 sigma=4.000000
pair_coeff 1 135 0.000000e+00 0.000000e+00 1.293687e+05 # CA1-SC70 type=non-native eps=0.002390 sigma=4.410142
pair_coeff 1 136 0.000000e+00 0.000000e+00 4.009755e+04 # CA1-CA71 type=non-native eps=0.002390 sigma=4.000000
pair_coeff 1 137 0.000000e+00 0.000000e+00 6.317440e+04 # CA1-SC71 type=non-native eps=0.002390 sigma=4.154435
pair_coeff 1 138 0.000000e+00 0.000000e+00 4.009755e+04 # CA1-CA72 type=non-native eps=0.002390 sigma=4.000000
pair_coeff 1 139 0.000000e+00 0.000000e+00 4.009755e+04 # CA1-SC72 type=non-native eps=0.002390 sigma=4.000000
pair_coeff 1 140 0.000000e+00 0.000000e+00 4.009755e+04 # CA1-CA73 type=non-native eps=0.002390 sigma=4.000000
pair_coeff 1 141 0.000000e+00 0.000000e+00 1.293687e+05 # CA1-SC73 type=non-native eps=0.002390 sigma=4.410142
pair_coeff 1 142 0.000000e+00 0.000000e+00 4.009755e+04 # CA1-CA74 type=non-native eps=0.002390 sigma=4.000000
pair_coeff 1 143 0.000000e+00 0.000000e+00 6.317440e+04 # CA1-SC74 type=non-native eps=0.002390 sigma=4.154435
pair_coeff 1 144 0.000000e+00 0.000000e+00 4.009755e+04 # CA1-CA75 type=non-native eps=0.002390 sigma=4.000000
pair_coeff 1 145 -8.182292e+02 0.000000e+00 1.167188e+06 # CA1-SC75 type=native eps=0.143400 sigma=3.766020
pair_coeff 1 146 0.000000e+00 0.000000e+00 4.009755e+04 # CA1-CA76 type=non-native eps=0.002390 sigma=4.000000
pair_coeff 1 147 0.000000e+00 0.000000e+00 2.286802e+04 # CA1-SC76 type=non-native eps=0.002390 sigma=3.817121
pair_coeff 1 148 0.000000e+00 0.000000e+00 4.009755e+04 # CA1-CA77 type=non-native eps=0.002390 sigma=4.000000
pair_coeff 1 149 0.000000e+00 0.000000e+00 4.009755e+04 # CA1-SC77 type=non-native eps=0.002390 sigma=4.000000
pair_coeff 1 150 0.000000e+00 0.000000e+00 4.009755e+04 # CA1-CA78 type=non-native eps=0.002390 sigma=4.000000
pair_coeff 1 151 0.000000e+00 0.000000e+00 2.286802e+04 # CA1-SC78 type=non-native eps=0.002390 sigma=3.817121
pair_coeff 1 152 -9.454089e+03 0.000000e+00 2.804805e+08 # CA1-CA79 type=native eps=0.079667 sigma=6.245284
pair_coeff 1 153 0.000000e+00 0.000000e+00 2.286802e+04 # CA1-SC79 type=non-native eps=0.002390 sigma=3.817121
pair_coeff 1 154 0.000000e+00 0.000000e+00 4.009755e+04 # CA1-CA80 type=non-native eps=0.002390 sigma=4.000000
pair_coeff 1 155 0.000000e+00 0.000000e+00 6.317440e+04 # CA1-SC80 type=non-native eps=0.002390 sigma=4.154435
pair_coeff 1 156 0.000000e+00 0.000000e+00 4.009755e+04 # CA1-CA81 type=non-native eps=0.002390 sigma=4.000000
pair_coeff 1 157 0.000000e+00 0.000000e+00 4.009755e+04 # CA1-SC81 type=non-native eps=0.002390 sigma=4.000000
pair_coeff 1 158 0.000000e+00 0.000000e+00 4.009755e+04 # CA1-CA82 type=non-native eps=0.002390 sigma=4.000000
pair_coeff 1 159 0.000000e+00 0.000000e+00 2.286802e+04 # CA1-SC82 type=non-native eps=0.002390 sigma=3.817121
pair_coeff 1 160 0.000000e+00 0.000000e+00 4.009755e+04 # CA1-CA83 type=non-native eps=0.002390 sigma=4.000000
pair_coeff 1 161 0.000000e+00 0.000000e+00 4.009755e+04 # CA1-CA84 type=non-native eps=0.002390 sigma=4.000000
pair_coeff 1 162 0.000000e+00 0.000000e+00 1.293687e+05 # CA1-SC84 type=non-native eps=0.002390 sigma=4.410142
pair_coeff 1 163 0.000000e+00 0.000000e+00 4.009755e+04 # CA1-CA85 type=non-native eps=0.002390 sigma=4.000000
pair_coeff 1 164 0.000000e+00 0.000000e+00 6.317440e+04 # CA1-SC85 type=non-native eps=0.002390 sigma=4.154435
pair_coeff 1 165 0.000000e+00 0.000000e+00 4.009755e+04 # CA1-CA86 type=non-native eps=0.002390 sigma=4.000000
pair_coeff 1 166 0.000000e+00 0.000000e+00 1.085818e+04 # CA1-SC86 type=non-native eps=0.002390 sigma=3.587401
pair_coeff 1 167 0.000000e+00 0.000000e+00 4.009755e+04 # CA1-CA87 type=non-native eps=0.002390 sigma=4.000000
pair_coeff 1 168 0.000000e+00 0.000000e+00 1.293687e+05 # CA1-SC87 type=non-native eps=0.002390 sigma=4.410142
pair_coeff 1 169 0.000000e+00 0.000000e+00 4.009755e+04 # CA1-CA88 type=non-native eps=0.002390 sigma=4.000000
pair_coeff 1 170 0.000000e+00 0.000000e+00 6.317440e+04 # CA1-SC88 type=non-native eps=0.002390 sigma=4.154435
pair_coeff 1 171 0.000000e+00 0.000000e+00 4.009755e+04 # CA1-CA89 type=non-native eps=0.002390 sigma=4.000000
pair_coeff 1 172 0.000000e+00 0.000000e+00 4.009755e+04 # CA1-SC89 type=non-native eps=0.002390 sigma=4.000000
pair_coeff 1 173 0.000000e+00 0.000000e+00 4.009755e+04 # CA1-CA90 type=non-native eps=0.002390 sigma=4.000000
pair_coeff 1 174 0.000000e+00 0.000000e+00 4.009755e+04 # CA1-SC90 type=non-native eps=0.002390 sigma=4.000000
pair_coeff 1 175 0.000000e+00 0.000000e+00 4.009755e+04 # CA1-CA91 type=non-native eps=0.002390 sigma=4.000000
pair_coeff 1 176 0.000000e+00 0.000000e+00 4.009755e+04 # CA1-SC91 type=non-native eps=0.002390 sigma=4.000000
pair_coeff 1 177 0.000000e+00 0.000000e+00 4.009755e+04 # CA1-CA92 type=non-native eps=0.002390 sigma=4.000000
pair_coeff 1 178 0.000000e+00 0.000000e+00 4.009755e+04 # CA1-SC92 type=non-native eps=0.002390 sigma=4.000000
pair_coeff 1 179 0.000000e+00 0.000000e+00 4.009755e+04 # CA1-CA93 type=non-native eps=0.002390 sigma=4.000000
pair_coeff 1 180 0.000000e+00 0.000000e+00 4.009755e+04 # CA1-SC93 type=non-native eps=0.002390 sigma=4.000000
pair_coeff 1 181 0.000000e+00 0.000000e+00 4.009755e+04 # CA1-CA94 type=non-native eps=0.002390 sigma=4.000000
pair_coeff 1 182 0.000000e+00 0.000000e+00 4.009755e+04 # CA1-SC94 type=non-native eps=0.002390 sigma=4.000000
pair_coeff 1 183 0.000000e+00 0.000000e+00 4.009755e+04 # CA1-CA95 type=non-native eps=0.002390 sigma=4.000000
pair_coeff 1 184 0.000000e+00 0.000000e+00 4.009755e+04 # CA1-CA96 type=non-native eps=0.002390 sigma=4.000000
pair_coeff 1 185 0.000000e+00 0.000000e+00 2.264320e+05 # CA1-SC96 type=non-native eps=0.002390 sigma=4.620741
pair_coeff 2 2 0.000000e+00 0.000000e+00 4.009755e+04 # SC1-SC1 type=non-native eps=0.002390 sigma=4.000000
pair_coeff 2 3 0.000000e+00 0.000000e+00 4.009755e+04 # SC1-CA2 type=non-native eps=0.002390 sigma=4.000000
pair_coeff 2 4 0.000000e+00 0.000000e+00 4.009755e+04 # SC1-SC2 type=non-native eps=0.002390 sigma=4.000000
pair_coeff 2 5 0.000000e+00 0.000000e+00 4.009755e+04 # SC1-CA3 type=non-native eps=0.002390 sigma=4.000000
pair_coeff 2 6 0.000000e+00 0.000000e+00 4.009755e+04 # SC1-SC3 type=non-native eps=0.002390 sigma=4.000000
pair_coeff 2 7 0.000000e+00 0.000000e+00 4.009755e+04 # SC1-CA4 type=non-native eps=0.002390 sigma=4.000000
pair_coeff 2 8 0.000000e+00 0.000000e+00 4.009755e+04 # SC1-SC4 type=non-native eps=0.002390 sigma=4.000000
pair_coeff 2 9 0.000000e+00 0.000000e+00 4.009755e+04 # SC1-CA5 type=non-native eps=0.002390 sigma=4.000000
pair_coeff 2 10 0.000000e+00 0.000000e+00 4.009755e+04 # SC1-CA6 type=non-native eps=0.002390 sigma=4.000000
pair_coeff 2 11 0.000000e+00 0.000000e+00 4.009755e+04 # SC1-SC6 type=non-native eps=0.002390 sigma=4.000000
pair_coeff 2 12 0.000000e+00 0.000000e+00 4.009755e+04 # SC1-CA7 type=non-native eps=0.002390 sigma=4.000000
pair_coeff 2 13 0.000000e+00 0.000000e+00 4.009755e+04 # SC1-SC7 type=non-native eps=0.002390 sigma=4.000000
pair_coeff 2 14 0.000000e+00 0.000000e+00 4.009755e+04 # SC1-CA8 type=non-native eps=0.002390 sigma=4.000000
pair_coeff 2 15 0.000000e+00 0.000000e+00 4.009755e+04 # SC1-SC8 type=non-native eps=0.002390 sigma=4.000000
pair_coeff 2 16 0.000000e+00 0.000000e+00 4.009755e+04 # SC1-CA9 type=non-native eps=0.002390 sigma=4.000000
pair_coeff 2 17 0.000000e+00 0.000000e+00 6.317440e+04 # SC1-SC9 type=non-native eps=0.002390 sigma=4.154435
pair_coeff 2 18 0.000000e+00 0.000000e+00 4.009755e+04 # SC1-CA10 type=non-native eps=0.002390 sigma=4.000000
pair_coeff 2 19 0.000000e+00 0.000000e+00 4.009755e+04 # SC1-SC10 type=non-native eps=0.002390 sigma=4.000000
pair_coeff 2 20 0.000000e+00 0.000000e+00 4.009755e+04 # SC1-CA11 type=non-native eps=0.002390 sigma=4.000000
pair_coeff 2 21 0.000000e+00 0.000000e+00 6.317440e+04 # SC1-SC11 type=non-native eps=0.002390 sigma=4.154435
pair_coeff 2 22 0.000000e+00 0.000000e+00 4.009755e+04 # SC1-CA12 type=non-native eps=0.002390 sigma=4.000000
pair_coeff 2 23 0.000000e+00 0.000000e+00 4.009755e+04 # SC1-SC12 type=non-native eps=0.002390 sigma=4.000000
pair_coeff 2 24 0.000000e+00 0.000000e+00 4.009755e+04 # SC1-CA13 type=non-native eps=0.002390 sigma=4.000000
pair_coeff 2 25 0.000000e+00 0.000000e+00 6.317440e+04 # SC1-SC13 type=non-native eps=0.002390 sigma=4.154435
pair_coeff 2 26 0.000000e+00 0.000000e+00 4.009755e+04 # SC1-CA14 type=non-native eps=0.002390 sigma=4.000000
pair_coeff 2 27 0.000000e+00 0.000000e+00 4.009755e+04 # SC1-SC14 type=non-native eps=0.002390 sigma=4.000000
pair_coeff 2 28 0.000000e+00 0.000000e+00 4.009755e+04 # SC1-CA15 type=non-native eps=0.002390 sigma=4.000000
pair_coeff 2 29 0.000000e+00 0.000000e+00 2.286802e+04 # SC1-SC15 type=non-native eps=0.002390 sigma=3.817121
pair_coeff 2 30 0.000000e+00 0.000000e+00 4.009755e+04 # SC1-CA16 type=non-native eps=0.002390 sigma=4.000000
pair_coeff 2 31 0.000000e+00 0.000000e+00 2.286802e+04 # SC1-SC16 type=non-native eps=0.002390 sigma=3.817121
pair_coeff 2 32 0.000000e+00 0.000000e+00 4.009755e+04 # SC1-CA17 type=non-native eps=0.002390 sigma=4.000000
pair_coeff 2 33 0.000000e+00 0.000000e+00 4.009755e+04 # SC1-SC17 type=non-native eps=0.002390 sigma=4.000000
pair_coeff 2 34 0.000000e+00 0.000000e+00 4.009755e+04 # SC1-CA18 type=non-native eps=0.002390 sigma=4.000000
pair_coeff 2 35 0.000000e+00 0.000000e+00 4.009755e+04 # SC1-SC18 type=non-native eps=0.002390 sigma=4.000000
pair_coeff 2 36 0.000000e+00 0.000000e+00 4.009755e+04 # SC1-CA19 type=non-native eps=0.002390 sigma=4.000000
pair_coeff 2 37 0.000000e+00 0.000000e+00 4.009755e+04 # SC1-SC19 type=non-native eps=0.002390 sigma=4.000000
pair_coeff 2 38 0.000000e+00 0.000000e+00 4.009755e+04 # SC1-CA20 type=non-native eps=0.002390 sigma=4.000000
pair_coeff 2 39 0.000000e+00 0.000000e+00 4.009755e+04 # SC1-SC20 type=non-native eps=0.002390 sigma=4.000000
pair_coeff 2 40 0.000000e+00 0.000000e+00 4.009755e+04 # SC1-CA21 type=non-native eps=0.002390 sigma=4.000000
pair_coeff 2 41 0.000000e+00 0.000000e+00 1.293687e+05 # SC1-SC21 type=non-native eps=0.002390 sigma=4.410142
pair_coeff 2 42 0.000000e+00 0.000000e+00 4.009755e+04 # SC1-CA22 type=non-native eps=0.002390 sigma=4.000000
pair_coeff 2 43 0.000000e+00 0.000000e+00 4.009755e+04 # SC1-CA23 type=non-native eps=0.002390 sigma=4.000000
pair_coeff 2 44 0.000000e+00 0.000000e+00 6.317440e+04 # SC1-SC23 type=non-native eps=0.002390 sigma=4.154435
pair_coeff 2 45 0.000000e+00 0.000000e+00 4.009755e+04 # SC1-CA24 type=non-native eps=0.002390 sigma=4.000000
pair_coeff 2 46 0.000000e+00 0.000000e+00 6.317440e+04 # SC1-SC24 type=non-native eps=0.002390 sigma=4.154435
pair_coeff 2 47 0.000000e+00 0.000000e+00 4.009755e+04 # SC1-CA25 type=non-native eps=0.002390 sigma=4.000000
pair_coeff 2 48 0.000000e+00 0.000000e+00 4.009755e+04 # SC1-SC25 type=non-native eps=0.002390 sigma=4.000000
pair_coeff 2 49 0.000000e+00 0.000000e+00 4.009755e+04 # SC1-CA26 type=non-native eps=0.002390 sigma=4.000000
pair_coeff 2 50 0.000000e+00 0.000000e+00 4.009755e+04 # SC1-SC26 type=non-native eps=0.002390 sigma=4.000000
pair_coeff 2 51 0.000000e+00 0.000000e+00 4.009755e+04 # SC1-CA27 type=non-native eps=0.002390 sigma=4.000000
pair_coeff 2 52 0.000000e+00 0.000000e+00 4.009755e+04 # SC1-SC27 type=non-native eps=0.002390 sigma=4.000000
pair_coeff 2 53 0.000000e+00 0.000000e+00 4.009755e+04 # SC1-CA28 type=non-native eps=0.002390 sigma=4.000000
pair_coeff 2 54 0.000000e+00 0.000000e+00 6.317440e+04 # SC1-SC28 type=non-native eps=0.002390 sigma=4.154435
pair_coeff 2 55 0.000000e+00 0.000000e+00 4.009755e+04 # SC1-CA29 type=non-native eps=0.002390 sigma=4.000000
pair_coeff 2 56 0.000000e+00 0.000000e+00 1.293687e+05 # SC1-SC29 type=non-native eps=0.002390 sigma=4.410142
pair_coeff 2 57 0.000000e+00 0.000000e+00 4.009755e+04 # SC1-CA30 type=non-native eps=0.002390 sigma=4.000000
pair_coeff 2 58 0.000000e+00 0.000000e+00 6.317440e+04 # SC1-SC30 type=non-native eps=0.002390 sigma=4.154435
pair_coeff 2 59 0.000000e+00 0.000000e+00 4.009755e+04 # SC1-CA31 type=non-native eps=0.002390 sigma=4.000000
pair_coeff 2 60 0.000000e+00 0.000000e+00 4.009755e+04 # SC1-SC31 type=non-native eps=0.002390 sigma=4.000000
pair_coeff 2 61 0.000000e+00 0.000000e+00 4.009755e+04 # SC1-CA32 type=non-native eps=0.002390 sigma=4.000000
pair_coeff 2 62 0.000000e+00 0.000000e+00 4.009755e+04 # SC1-SC32 type=non-native eps=0.002390 sigma=4.000000
pair_coeff 2 63 0.000000e+00 0.000000e+00 4.009755e+04 # SC1-CA33 type=non-native eps=0.002390 sigma=4.000000
pair_coeff 2 64 0.000000e+00 0.000000e+00 4.009755e+04 # SC1-SC33 type=non-native eps=0.002390 sigma=4.000000
pair_coeff 2 65 0.000000e+00 0.000000e+00 4.009755e+04 # SC1-CA34 type=non-native eps=0.002390 sigma=4.000000
pair_coeff 2 66 0.000000e+00 0.000000e+00 6.317440e+04 # SC1-SC34 type=non-native eps=0.002390 sigma=4.154435
pair_coeff 2 67 0.000000e+00 0.000000e+00 4.009755e+04 # SC1-CA35 type=non-native eps=0.002390 sigma=4.000000
pair_coeff 2 68 0.000000e+00 0.000000e+00 4.009755e+04 # SC1-SC35 type=non-native eps=0.002390 sigma=4.000000
pair_coeff 2 69 0.000000e+00 0.000000e+00 4.009755e+04 # SC1-CA36 type=non-native eps=0.002390 sigma=4.000000
pair_coeff 2 70 0.000000e+00 0.000000e+00 6.317440e+04 # SC1-SC36 type=non-native eps=0.002390 sigma=4.154435
pair_coeff 2 71 0.000000e+00 0.000000e+00 4.009755e+04 # SC1-CA37 type=non-native eps=0.002390 sigma=4.000000
pair_coeff 2 72 0.000000e+00 0.000000e+00 1.737309e+05 # SC1-SC37 type=non-native eps=0.002390 sigma=4.519842
pair_coeff 2 73 0.000000e+00 0.000000e+00 4.009755e+04 # SC1-CA38 type=non-native eps=0.002390 sigma=4.000000
pair_coeff 2 74 0.000000e+00 0.000000e+00 4.009755e+04 # SC1-CA39 type=non-native eps=0.002390 sigma=4.000000
pair_coeff 2 75 0.000000e+00 0.000000e+00 2.286802e+04 # SC1-SC39 type=non-native eps=0.002390 sigma=3.817121
pair_coeff 2 76 0.000000e+00 0.000000e+00 4.009755e+04 # SC1-CA40 type=non-native eps=0.002390 sigma=4.000000
pair_coeff 2 77 0.000000e+00 0.000000e+00 4.009755e+04 # SC1-SC40 type=non-native eps=0.002390 sigma=4.000000
pair_coeff 2 78 0.000000e+00 0.000000e+00 4.009755e+04 # SC1-CA41 type=non-native eps=0.002390 sigma=4.000000
pair_coeff 2 79 0.000000e+00 0.000000e+00 2.286802e+04 # SC1-SC41 type=non-native eps=0.002390 sigma=3.817121
pair_coeff 2 80 0.000000e+00 0.000000e+00 4.009755e+04 # SC1-CA42 type=non-native eps=0.002390 sigma=4.000000
pair_coeff 2 81 0.000000e+00 0.000000e+00 6.317440e+04 # SC1-SC42 type=non-native eps=0.002390 sigma=4.154435
pair_coeff 2 82 0.000000e+00 0.000000e+00 4.009755e+04 # SC1-CA43 type=non-native eps=0.002390 sigma=4.000000
pair_coeff 2 83 0.000000e+00 0.000000e+00 4.009755e+04 # SC1-SC43 type=non-native eps=0.002390 sigma=4.000000
pair_coeff 2 84 0.000000e+00 0.000000e+00 4.009755e+04 # SC1-CA44 type=non-native eps=0.002390 sigma=4.000000
pair_coeff 2 85 0.000000e+00 0.000000e+00 4.009755e+04 # SC1-SC44 type=non-native eps=0.002390 sigma=4.000000
pair_coeff 2 86 0.000000e+00 0.000000e+00 4.009755e+04 # SC1-CA45 type=non-native eps=0.002390 sigma=4.000000
pair_coeff 2 87 0.000000e+00 0.000000e+00 6.317440e+04 # SC1-SC45 type=non-native eps=0.002390 sigma=4.154435
pair_coeff 2 88 0.000000e+00 0.000000e+00 4.009755e+04 # SC1-CA46 type=non-native eps=0.002390 sigma=4.000000
pair_coeff 2 89 0.000000e+00 0.000000e+00 4.009755e+04 # SC1-SC46 type=non-native eps=0.002390 sigma=4.000000
pair_coeff 2 90 0.000000e+00 0.000000e+00 4.009755e+04 # SC1-CA47 type=non-native eps=0.002390 sigma=4.000000
pair_coeff 2 91 0.000000e+00 0.000000e+00 4.009755e+04 # SC1-SC47 type=non-native eps=0.002390 sigma=4.000000
pair_coeff 2 92 0.000000e+00 0.000000e+00 4.009755e+04 # SC1-CA48 type=non-native eps=0.002390 sigma=4.000000
pair_coeff 2 93 0.000000e+00 0.000000e+00 6.317440e+04 # SC1-SC48 type=non-native eps=0.002390 sigma=4.154435
pair_coeff 2 94 0.000000e+00 0.000000e+00 4.009755e+04 # SC1-CA49 type=non-native eps=0.002390 sigma=4.000000
pair_coeff 2 95 0.000000e+00 0.000000e+00 2.286802e+04 # SC1-SC49 type=non-native eps=0.002390 sigma=3.817121
pair_coeff 2 96 0.000000e+00 0.000000e+00 4.009755e+04 # SC1-CA50 type=non-native eps=0.002390 sigma=4.000000
pair_coeff 2 97 0.000000e+00 0.000000e+00 1.085818e+04 # SC1-SC50 type=non-native eps=0.002390 sigma=3.587401
pair_coeff 2 98 0.000000e+00 0.000000e+00 4.009755e+04 # SC1-CA51 type=non-native eps=0.002390 sigma=4.000000
pair_coeff 2 99 0.000000e+00 0.000000e+00 6.317440e+04 # SC1-SC51 type=non-native eps=0.002390 sigma=4.154435
pair_coeff 2 100 0.000000e+00 0.000000e+00 4.009755e+04 # SC1-CA52 type=non-native eps=0.002390 sigma=4.000000
pair_coeff 2 101 0.000000e+00 0.000000e+00 4.009755e+04 # SC1-SC52 type=non-native eps=0.002390 sigma=4.000000
pair_coeff 2 102 0.000000e+00 0.000000e+00 4.009755e+04 # SC1-CA53 type=non-native eps=0.002390 sigma=4.000000
pair_coeff 2 103 0.000000e+00 0.000000e+00 6.317440e+04 # SC1-SC53 type=non-native eps=0.002390 sigma=4.154435
pair_coeff 2 104 0.000000e+00 0.000000e+00 4.009755e+04 # SC1-CA54 type=non-native eps=0.002390 sigma=4.000000
pair_coeff 2 105 0.000000e+00 0.000000e+00 1.293687e+05 # SC1-SC54 type=non-native eps=0.002390 sigma=4.410142
pair_coeff 2 106 0.000000e+00 0.000000e+00 4.009755e+04 # SC1-CA55 type=non-native eps=0.002390 sigma=4.000000
pair_coeff 2 107 0.000000e+00 0.000000e+00 1.293687e+05 # SC1-SC55 type=non-native eps=0.002390 sigma=4.410142
pair_coeff 2 108 0.000000e+00 0.000000e+00 4.009755e+04 # SC1-CA56 type=non-native eps=0.002390 sigma=4.000000
pair_coeff 2 109 0.000000e+00 0.000000e+00 1.737309e+05 # SC1-SC56 type=non-native eps=0.002390 sigma=4.519842
pair_coeff 2 110 0.000000e+00 0.000000e+00 4.009755e+04 # SC1-CA57 type=non-native eps=0.002390 sigma=4.000000
pair_coeff 2 111 0.000000e+00 0.000000e+00 1.737309e+05 # SC1-SC57 type=non-native eps=0.002390 sigma=4.519842
pair_coeff 2 112 0.000000e+00 0.000000e+00 4.009755e+04 # SC1-CA58 type=non-native eps=0.002390 sigma=4.000000
pair_coeff 2 113 0.000000e+00 0.000000e+00 2.286802e+04 # SC1-SC58 type=non-native eps=0.002390 sigma=3.817121
pair_coeff 2 114 0.000000e+00 0.000000e+00 4.009755e+04 # SC1-CA59 type=non-native eps=0.002390 sigma=4.000000
pair_coeff 2 115 0.000000e+00 0.000000e+00 1.085818e+04 # SC1-SC59 type=non-native eps=0.002390 sigma=3.587401
pair_coeff 2 116 0.000000e+00 0.000000e+00 4.009755e+04 # SC1-CA60 type=non-native eps=0.002390 sigma=4.000000
pair_coeff 2 117 0.000000e+00 0.000000e+00 2.286802e+04 # SC1-SC60 type=non-native eps=0.002390 sigma=3.817121
pair_coeff 2 118 0.000000e+00 0.000000e+00 4.009755e+04 # SC1-CA61 type=non-native eps=0.002390 sigma=4.000000
pair_coeff 2 119 0.000000e+00 0.000000e+00 4.009755e+04 # SC1-SC61 type=non-native eps=0.002390 sigma=4.000000
pair_coeff 2 120 0.000000e+00 0.000000e+00 4.009755e+04 # SC1-CA62 type=non-native eps=0.002390 sigma=4.000000
pair_coeff 2 121 0.000000e+00 0.000000e+00 3.442571e+03 # SC1-SC62 type=non-native eps=0.002390 sigma=3.259921
pair_coeff 2 122 0.000000e+00 0.000000e+00 4.009755e+04 # SC1-CA63 type=non-native eps=0.002390 sigma=4.000000
pair_coeff 2 123 0.000000e+00 0.000000e+00 4.009755e+04 # SC1-CA64 type=non-native eps=0.002390 sigma=4.000000
pair_coeff 2 124 0.000000e+00 0.000000e+00 4.009755e+04 # SC1-SC64 type=non-native eps=0.002390 sigma=4.000000
pair_coeff 2 125 0.000000e+00 0.000000e+00 4.009755e+04 # SC1-CA65 type=non-native eps=0.002390 sigma=4.000000
pair_coeff 2 126 0.000000e+00 0.000000e+00 4.009755e+04 # SC1-CA66 type=non-native eps=0.002390 sigma=4.000000
pair_coeff 2 127 0.000000e+00 0.000000e+00 6.317440e+04 # SC1-SC66 type=non-native eps=0.002390 sigma=4.154435
pair_coeff 2 128 0.000000e+00 0.000000e+00 4.009755e+04 # SC1-CA67 type=non-native eps=0.002390 sigma=4.000000
pair_coeff 2 129 0.000000e+00 0.000000e+00 6.317440e+04 # SC1-SC67 type=non-native eps=0.002390 sigma=4.154435
pair_coeff 2 130 0.000000e+00 0.000000e+00 4.009755e+04 # SC1-CA68 type=non-native eps=0.002390 sigma=4.000000
pair_coeff 2 131 0.000000e+00 0.000000e+00 1.085818e+04 # SC1-SC68 type=non-native eps=0.002390 sigma=3.587401
pair_coeff 2 132 0.000000e+00 0.000000e+00 4.009755e+04 # SC1-CA69 type=non-native eps=0.002390 sigma=4.000000
pair_coeff 2 133 0.000000e+00 0.000000e+00 6.317440e+04 # SC1-SC69 type=non-native eps=0.002390 sigma=4.154435
pair_coeff 2 134 0.000000e+00 0.000000e+00 4.009755e+04 # SC1-CA70 type=non-native eps=0.002390 sigma=4.000000
pair_coeff 2 135 0.000000e+00 0.000000e+00 1.293687e+05 # SC1-SC70 type=non-native eps=0.002390 sigma=4.410142
pair_coeff 2 136 0.000000e+00 0.000000e+00 4.009755e+04 # SC1-CA71 type=non-native eps=0.002390 sigma=4.000000
pair_coeff 2 137 0.000000e+00 0.000000e+00 6.317440e+04 # SC1-SC71 type=non-native eps=0.002390 sigma=4.154435
pair_coeff 2 138 0.000000e+00 0.000000e+00 4.009755e+04 # SC1-CA72 type=non-native eps=0.002390 sigma=4.000000
pair_coeff 2 139 0.000000e+00 0.000000e+00 4.009755e+04 # SC1-SC72 type=non-native eps=0.002390 sigma=4.000000
pair_coeff 2 140 0.000000e+00 0.000000e+00 4.009755e+04 # SC1-CA73 type=non-native eps=0.002390 sigma=4.000000
pair_coeff 2 141 0.000000e+00 0.000000e+00 1.293687e+05 # SC1-SC73 type=non-native eps=0.002390 sigma=4.410142
pair_coeff 2 142 0.000000e+00 0.000000e+00 4.009755e+04 # SC1-CA74 type=non-native eps=0.002390 sigma=4.000000
pair_coeff 2 143 0.000000e+00 0.000000e+00 6.317440e+04 # SC1-SC74 type=non-native eps=0.002390 sigma=4.154435
pair_coeff 2 144 0.000000e+00 0.000000e+00 4.009755e+04 # SC1-CA75 type=non-native eps=0.002390 sigma=4.000000
pair_coeff 2 145 -3.643360e+03 0.000000e+00 3.471253e+07 # SC1-SC75 type=native eps=0.095600 sigma=5.168157
pair_coeff 2 146 0.000000e+00 0.000000e+00 4.009755e+04 # SC1-CA76 type=non-native eps=0.002390 sigma=4.000000
pair_coeff 2 147 0.000000e+00 0.000000e+00 2.286802e+04 # SC1-SC76 type=non-native eps=0.002390 sigma=3.817121
pair_coeff 2 148 0.000000e+00 0.000000e+00 4.009755e+04 # SC1-CA77 type=non-native eps=0.002390 sigma=4.000000
pair_coeff 2 149 0.000000e+00 0.000000e+00 4.009755e+04 # SC1-SC77 type=non-native eps=0.002390 sigma=4.000000
pair_coeff 2 150 0.000000e+00 0.000000e+00 4.009755e+04 # SC1-CA78 type=non-native eps=0.002390 sigma=4.000000
pair_coeff 2 151 0.000000e+00 0.000000e+00 2.286802e+04 # SC1-SC78 type=non-native eps=0.002390 sigma=3.817121
pair_coeff 2 152 -1.645100e+04 0.000000e+00 5.661832e+08 # SC1-CA79 type=native eps=0.119500 sigma=6.401756
pair_coeff 2 153 -1.719308e+04 0.000000e+00 1.855242e+09 # SC1-SC79 type=native eps=0.039833 sigma=7.744847
pair_coeff 2 154 0.000000e+00 0.000000e+00 4.009755e+04 # SC1-CA80 type=non-native eps=0.002390 sigma=4.000000
pair_coeff 2 155 0.000000e+00 0.000000e+00 6.317440e+04 # SC1-SC80 type=non-native eps=0.002390 sigma=4.154435
pair_coeff 2 156 0.000000e+00 0.000000e+00 4.009755e+04 # SC1-CA81 type=non-native eps=0.002390 sigma=4.000000
pair_coeff 2 157 0.000000e+00 0.000000e+00 4.009755e+04 # SC1-SC81 type=non-native eps=0.002390 sigma=4.000000
pair_coeff 2 158 0.000000e+00 0.000000e+00 4.009755e+04 # SC1-CA82 type=non-native eps=0.002390 sigma=4.000000
pair_coeff 2 159 0.000000e+00 0.000000e+00 2.286802e+04 # SC1-SC82 type=non-native eps=0.002390 sigma=3.817121
pair_coeff 2 160 0.000000e+00 0.000000e+00 4.009755e+04 # SC1-CA83 type=non-native eps=0.002390 sigma=4.000000
pair_coeff 2 161 0.000000e+00 0.000000e+00 4.009755e+04 # SC1-CA84 type=non-native eps=0.002390 sigma=4.000000
pair_coeff 2 162 0.000000e+00 0.000000e+00 1.293687e+05 # SC1-SC84 type=non-native eps=0.002390 sigma=4.410142
pair_coeff 2 163 0.000000e+00 0.000000e+00 4.009755e+04 # SC1-CA85 type=non-native eps=0.002390 sigma=4.000000
pair_coeff 2 164 0.000000e+00 0.000000e+00 6.317440e+04 # SC1-SC85 type=non-native eps=0.002390 sigma=4.154435
pair_coeff 2 165 0.000000e+00 0.000000e+00 4.009755e+04 # SC1-CA86 type=non-native eps=0.002390 sigma=4.000000
pair_coeff 2 166 0.000000e+00 0.000000e+00 1.085818e+04 # SC1-SC86 type=non-native eps=0.002390 sigma=3.587401
pair_coeff 2 167 0.000000e+00 0.000000e+00 4.009755e+04 # SC1-CA87 type=non-native eps=0.002390 sigma=4.000000
pair_coeff 2 168 0.000000e+00 0.000000e+00 1.293687e+05 # SC1-SC87 type=non-native eps=0.002390 sigma=4.410142
pair_coeff 2 169 0.000000e+00 0.000000e+00 4.009755e+04 # SC1-CA88 type=non-native eps=0.002390 sigma=4.000000
pair_coeff 2 170 0.000000e+00 0.000000e+00 6.317440e+04 # SC1-SC88 type=non-native eps=0.002390 sigma=4.154435
pair_coeff 2 171 0.000000e+00 0.000000e+00 4.009755e+04 # SC1-CA89 type=non-native eps=0.002390 sigma=4.000000
pair_coeff 2 172 0.000000e+00 0.000000e+00 4.009755e+04 # SC1-SC89 type=non-native eps=0.002390 sigma=4.000000
pair_coeff 2 173 0.000000e+00 0.000000e+00 4.009755e+04 # SC1-CA90 type=non-native eps=0.002390 sigma=4.000000
pair_coeff 2 174 0.000000e+00 0.000000e+00 4.009755e+04 # SC1-SC90 type=non-native eps=0.002390 sigma=4.000000
pair_coeff 2 175 0.000000e+00 0.000000e+00 4.009755e+04 # SC1-CA91 type=non-native eps=0.002390 sigma=4.000000
pair_coeff 2 176 0.000000e+00 0.000000e+00 4.009755e+04 # SC1-SC91 type=non-native eps=0.002390 sigma=4.000000
pair_coeff 2 177 0.000000e+00 0.000000e+00 4.009755e+04 # SC1-CA92 type=non-native eps=0.002390 sigma=4.000000
pair_coeff 2 178 0.000000e+00 0.000000e+00 4.009755e+04 # SC1-SC92 type=non-native eps=0.002390 sigma=4.000000
pair_coeff 2 179 0.000000e+00 0.000000e+00 4.009755e+04 # SC1-CA93 type=non-native eps=0.002390 sigma=4.000000
pair_coeff 2 180 0.000000e+00 0.000000e+00 4.009755e+04 # SC1-SC93 type=non-native eps=0.002390 sigma=4.000000
pair_coeff 2 181 0.000000e+00 0.000000e+00 4.009755e+04 # SC1-CA94 type=non-native eps=0.002390 sigma=4.000000
pair_coeff 2 182 0.000000e+00 0.000000e+00 4.009755e+04 # SC1-SC94 type=non-native eps=0.002390 sigma=4.000000
pair_coeff 2 183 0.000000e+00 0.000000e+00 4.009755e+04 # SC1-CA95 type=non-native eps=0.002390 sigma=4.000000
pair_coeff 2 184 0.000000e+00 0.000000e+00 4.009755e+04 # SC1-CA96 type=non-native eps=0.002390 sigma=4.000000
pair_coeff 2 185 0.000000e+00 0.000000e+00 2.264320e+05 # SC1-SC96 type=non-native eps=0.002390 sigma=4.620741
pair_coeff 3 3 0.000000e+00 0.000000e+00 4.009755e+04 # CA2-CA2 type=non-native eps=0.002390 sigma=4.000000
pair_coeff 3 4 0.000000e+00 0.000000e+00 4.009755e+04 # CA2-SC2 type=non-native eps=0.002390 sigma=4.000000
pair_coeff 3 5 0.000000e+00 0.000000e+00 4.009755e+04 # CA2-CA3 type=non-native eps=0.002390 sigma=4.000000
pair_coeff 3 6 0.000000e+00 0.000000e+00 4.009755e+04 # CA2-SC3 type=non-native eps=0.002390 sigma=4.000000
pair_coeff 3 7 0.000000e+00 0.000000e+00 4.009755e+04 # CA2-CA4 type=non-native eps=0.002390 sigma=4.000000
pair_coeff 3 8 0.000000e+00 0.000000e+00 4.009755e+04 # CA2-SC4 type=non-native eps=0.002390 sigma=4.000000
pair_coeff 3 9 0.000000e+00 0.000000e+00 4.009755e+04 # CA2-CA5 type=non-native eps=0.002390 sigma=4.000000
pair_coeff 3 10 0.000000e+00 0.000000e+00 4.009755e+04 # CA2-CA6 type=non-native eps=0.002390 sigma=4.000000
pair_coeff 3 11 0.000000e+00 0.000000e+00 4.009755e+04 # CA2-SC6 type=non-native eps=0.002390 sigma=4.000000
pair_coeff 3 12 0.000000e+00 0.000000e+00 4.009755e+04 # CA2-CA7 type=non-native eps=0.002390 sigma=4.000000
pair_coeff 3 13 0.000000e+00 0.000000e+00 4.009755e+04 # CA2-SC7 type=non-native eps=0.002390 sigma=4.000000
pair_coeff 3 14 0.000000e+00 0.000000e+00 4.009755e+04 # CA2-CA8 type=non-native eps=0.002390 sigma=4.000000
pair_coeff 3 15 0.000000e+00 0.000000e+00 4.009755e+04 # CA2-SC8 type=non-native eps=0.002390 sigma=4.000000
pair_coeff 3 16 0.000000e+00 0.000000e+00 4.009755e+04 # CA2-CA9 type=non-native eps=0.002390 sigma=4.000000
pair_coeff 3 17 0.000000e+00 0.000000e+00 6.317440e+04 # CA2-SC9 type=non-native eps=0.002390 sigma=4.154435
pair_coeff 3 18 0.000000e+00 0.000000e+00 4.009755e+04 # CA2-CA10 type=non-native eps=0.002390 sigma=4.000000
pair_coeff 3 19 0.000000e+00 0.000000e+00 4.009755e+04 # CA2-SC10 type=non-native eps=0.002390 sigma=4.000000
pair_coeff 3 20 0.000000e+00 0.000000e+00 4.009755e+04 # CA2-CA11 type=non-native eps=0.002390 sigma=4.000000
pair_coeff 3 21 0.000000e+00 0.000000e+00 6.317440e+04 # CA2-SC11 type=non-native eps=0.002390 sigma=4.154435
pair_coeff 3 22 0.000000e+00 0.000000e+00 4.009755e+04 # CA2-CA12 type=non-native eps=0.002390 sigma=4.000000
pair_coeff 3 23 0.000000e+00 0.000000e+00 4.009755e+04 # CA2-SC12 type=non-native eps=0.002390 sigma=4.000000
pair_coeff 3 24 0.000000e+00 0.000000e+00 4.009755e+04 # CA2-CA13 type=non-native eps=0.002390 sigma=4.000000
pair_coeff 3 25 0.000000e+00 0.000000e+00 6.317440e+04 # CA2-SC13 type=non-native eps=0.002390 sigma=4.154435
pair_coeff 3 26 0.000000e+00 0.000000e+00 4.009755e+04 # CA2-CA14 type=non-native eps=0.002390 sigma=4.000000
pair_coeff 3 27 0.000000e+00 0.000000e+00 4.009755e+04 # CA2-SC14 type=non-native eps=0.002390 sigma=4.000000
pair_coeff 3 28 0.000000e+00 0.000000e+00 4.009755e+04 # CA2-CA15 type=non-native eps=0.002390 sigma=4.000000
pair_coeff 3 29 0.000000e+00 0.000000e+00 2.286802e+04 # CA2-SC15 type=non-native eps=0.002390 sigma=3.817121
pair_coeff 3 30 0.000000e+00 0.000000e+00 4.009755e+04 # CA2-CA16 type=non-native eps=0.002390 sigma=4.000000
pair_coeff 3 31 0.000000e+00 0.000000e+00 2.286802e+04 # CA2-SC16 type=non-native eps=0.002390 sigma=3.817121
pair_coeff 3 32 0.000000e+00 0.000000e+00 4.009755e+04 # CA2-CA17 type=non-native eps=0.002390 sigma=4.000000
pair_coeff 3 33 0.000000e+00 0.000000e+00 4.009755e+04 # CA2-SC17 type=non-native eps=0.002390 sigma=4.000000
pair_coeff 3 34 0.000000e+00 0.000000e+00 4.009755e+04 # CA2-CA18 type=non-native eps=0.002390 sigma=4.000000
pair_coeff 3 35 0.000000e+00 0.000000e+00 4.009755e+04 # CA2-SC18 type=non-native eps=0.002390 sigma=4.000000
pair_coeff 3 36 0.000000e+00 0.000000e+00 4.009755e+04 # CA2-CA19 type=non-native eps=0.002390 sigma=4.000000
pair_coeff 3 37 0.000000e+00 0.000000e+00 4.009755e+04 # CA2-SC19 type=non-native eps=0.002390 sigma=4.000000
pair_coeff 3 38 0.000000e+00 0.000000e+00 4.009755e+04 # CA2-CA20 type=non-native eps=0.002390 sigma=4.000000
pair_coeff 3 39 0.000000e+00 0.000000e+00 4.009755e+04 # CA2-SC20 type=non-native eps=0.002390 sigma=4.000000
pair_coeff 3 40 0.000000e+00 0.000000e+00 4.009755e+04 # CA2-CA21 type=non-native eps=0.002390 sigma=4.000000
pair_coeff 3 41 0.000000e+00 0.000000e+00 1.293687e+05 # CA2-SC21 type=non-native eps=0.002390 sigma=4.410142
pair_coeff 3 42 0.000000e+00 0.000000e+00 4.009755e+04 # CA2-CA22 type=non-native eps=0.002390 sigma=4.000000
pair_coeff 3 43 0.000000e+00 0.000000e+00 4.009755e+04 # CA2-CA23 type=non-native eps=0.002390 sigma=4.000000
pair_coeff 3 44 0.000000e+00 0.000000e+00 6.317440e+04 # CA2-SC23 type=non-native eps=0.002390 sigma=4.154435
pair_coeff 3 45 0.000000e+00 0.000000e+00 4.009755e+04 # CA2-CA24 type=non-native eps=0.002390 sigma=4.000000
pair_coeff 3 46 0.000000e+00 0.000000e+00 6.317440e+04 # CA2-SC24 type=non-native eps=0.002390 sigma=4.154435
pair_coeff 3 47 0.000000e+00 0.000000e+00 4.009755e+04 # CA2-CA25 type=non-native eps=0.002390 sigma=4.000000
pair_coeff 3 48 0.000000e+00 0.000000e+00 4.009755e+04 # CA2-SC25 type=non-native eps=0.002390 sigma=4.000000
pair_coeff 3 49 0.000000e+00 0.000000e+00 4.009755e+04 # CA2-CA26 type=non-native eps=0.002390 sigma=4.000000
pair_coeff 3 50 0.000000e+00 0.000000e+00 4.009755e+04 # CA2-SC26 type=non-native eps=0.002390 sigma=4.000000
pair_coeff 3 51 0.000000e+00 0.000000e+00 4.009755e+04 # CA2-CA27 type=non-native eps=0.002390 sigma=4.000000
pair_coeff 3 52 0.000000e+00 0.000000e+00 4.009755e+04 # CA2-SC27 type=non-native eps=0.002390 sigma=4.000000
pair_coeff 3 53 0.000000e+00 0.000000e+00 4.009755e+04 # CA2-CA28 type=non-native eps=0.002390 sigma=4.000000
pair_coeff 3 54 0.000000e+00 0.000000e+00 6.317440e+04 # CA2-SC28 type=non-native eps=0.002390 sigma=4.154435
pair_coeff 3 55 0.000000e+00 0.000000e+00 4.009755e+04 # CA2-CA29 type=non-native eps=0.002390 sigma=4.000000
pair_coeff 3 56 -1.314446e+04 0.000000e+00 9.036443e+08 # CA2-SC29 type=native eps=0.047800 sigma=7.184239
pair_coeff 3 57 0.000000e+00 0.000000e+00 4.009755e+04 # CA2-CA30 type=non-native eps=0.002390 sigma=4.000000
pair_coeff 3 58 0.000000e+00 0.000000e+00 6.317440e+04 # CA2-SC30 type=non-native eps=0.002390 sigma=4.154435
pair_coeff 3 59 0.000000e+00 0.000000e+00 4.009755e+04 # CA2-CA31 type=non-native eps=0.002390 sigma=4.000000
pair_coeff 3 60 0.000000e+00 0.000000e+00 4.009755e+04 # CA2-SC31 type=non-native eps=0.002390 sigma=4.000000
pair_coeff 3 61 0.000000e+00 0.000000e+00 4.009755e+04 # CA2-CA32 type=non-native eps=0.002390 sigma=4.000000
pair_coeff 3 62 0.000000e+00 0.000000e+00 4.009755e+04 # CA2-SC32 type=non-native eps=0.002390 sigma=4.000000
pair_coeff 3 63 0.000000e+00 0.000000e+00 4.009755e+04 # CA2-CA33 type=non-native eps=0.002390 sigma=4.000000
pair_coeff 3 64 0.000000e+00 0.000000e+00 4.009755e+04 # CA2-SC33 type=non-native eps=0.002390 sigma=4.000000
pair_coeff 3 65 0.000000e+00 0.000000e+00 4.009755e+04 # CA2-CA34 type=non-native eps=0.002390 sigma=4.000000
pair_coeff 3 66 0.000000e+00 0.000000e+00 6.317440e+04 # CA2-SC34 type=non-native eps=0.002390 sigma=4.154435
pair_coeff 3 67 0.000000e+00 0.000000e+00 4.009755e+04 # CA2-CA35 type=non-native eps=0.002390 sigma=4.000000
pair_coeff 3 68 0.000000e+00 0.000000e+00 4.009755e+04 # CA2-SC35 type=non-native eps=0.002390 sigma=4.000000
pair_coeff 3 69 0.000000e+00 0.000000e+00 4.009755e+04 # CA2-CA36 type=non-native eps=0.002390 sigma=4.000000
pair_coeff 3 70 0.000000e+00 0.000000e+00 6.317440e+04 # CA2-SC36 type=non-native eps=0.002390 sigma=4.154435
pair_coeff 3 71 0.000000e+00 0.000000e+00 4.009755e+04 # CA2-CA37 type=non-native eps=0.002390 sigma=4.000000
pair_coeff 3 72 0.000000e+00 0.000000e+00 1.737309e+05 # CA2-SC37 type=non-native eps=0.002390 sigma=4.519842
pair_coeff 3 73 0.000000e+00 0.000000e+00 4.009755e+04 # CA2-CA38 type=non-native eps=0.002390 sigma=4.000000
pair_coeff 3 74 0.000000e+00 0.000000e+00 4.009755e+04 # CA2-CA39 type=non-native eps=0.002390 sigma=4.000000
pair_coeff 3 75 0.000000e+00 0.000000e+00 2.286802e+04 # CA2-SC39 type=non-native eps=0.002390 sigma=3.817121
pair_coeff 3 76 0.000000e+00 0.000000e+00 4.009755e+04 # CA2-CA40 type=non-native eps=0.002390 sigma=4.000000
pair_coeff 3 77 0.000000e+00 0.000000e+00 4.009755e+04 # CA2-SC40 type=non-native eps=0.002390 sigma=4.000000
pair_coeff 3 78 0.000000e+00 0.000000e+00 4.009755e+04 # CA2-CA41 type=non-native eps=0.002390 sigma=4.000000
pair_coeff 3 79 0.000000e+00 0.000000e+00 2.286802e+04 # CA2-SC41 type=non-native eps=0.002390 sigma=3.817121
pair_coeff 3 80 0.000000e+00 0.000000e+00 4.009755e+04 # CA2-CA42 type=non-native eps=0.002390 sigma=4.000000
pair_coeff 3 81 0.000000e+00 0.000000e+00 6.317440e+04 # CA2-SC42 type=non-native eps=0.002390 sigma=4.154435
pair_coeff 3 82 0.000000e+00 0.000000e+00 4.009755e+04 # CA2-CA43 type=non-native eps=0.002390 sigma=4.000000
pair_coeff 3 83 0.000000e+00 0.000000e+00 4.009755e+04 # CA2-SC43 type=non-native eps=0.002390 sigma=4.000000
pair_coeff 3 84 0.000000e+00 0.000000e+00 4.009755e+04 # CA2-CA44 type=non-native eps=0.002390 sigma=4.000000
pair_coeff 3 85 0.000000e+00 0.000000e+00 4.009755e+04 # CA2-SC44 type=non-native eps=0.002390 sigma=4.000000
pair_coeff 3 86 0.000000e+00 0.000000e+00 4.009755e+04 # CA2-CA45 type=non-native eps=0.002390 sigma=4.000000
pair_coeff 3 87 0.000000e+00 0.000000e+00 6.317440e+04 # CA2-SC45 type=non-native eps=0.002390 sigma=4.154435
pair_coeff 3 88 0.000000e+00 0.000000e+00 4.009755e+04 # CA2-CA46 type=non-native eps=0.002390 sigma=4.000000
pair_coeff 3 89 0.000000e+00 0.000000e+00 4.009755e+04 # CA2-SC46 type=non-native eps=0.002390 sigma=4.000000
pair_coeff 3 90 0.000000e+00 0.000000e+00 4.009755e+04 # CA2-CA47 type=non-native eps=0.002390 sigma=4.000000
pair_coeff 3 91 0.000000e+00 0.000000e+00 4.009755e+04 # CA2-SC47 type=non-native eps=0.002390 sigma=4.000000
pair_coeff 3 92 0.000000e+00 0.000000e+00 4.009755e+04 # CA2-CA48 type=non-native eps=0.002390 sigma=4.000000
pair_coeff 3 93 0.000000e+00 0.000000e+00 6.317440e+04 # CA2-SC48 type=non-native eps=0.002390 sigma=4.154435
pair_coeff 3 94 0.000000e+00 0.000000e+00 4.009755e+04 # CA2-CA49 type=non-native eps=0.002390 sigma=4.000000
pair_coeff 3 95 0.000000e+00 0.000000e+00 2.286802e+04 # CA2-SC49 type=non-native eps=0.002390 sigma=3.817121
pair_coeff 3 96 0.000000e+00 0.000000e+00 4.009755e+04 # CA2-CA50 type=non-native eps=0.002390 sigma=4.000000
pair_coeff 3 97 0.000000e+00 0.000000e+00 1.085818e+04 # CA2-SC50 type=non-native eps=0.002390 sigma=3.587401
pair_coeff 3 98 0.000000e+00 0.000000e+00 4.009755e+04 # CA2-CA51 type=non-native eps=0.002390 sigma=4.000000
pair_coeff 3 99 0.000000e+00 0.000000e+00 6.317440e+04 # CA2-SC51 type=non-native eps=0.002390 sigma=4.154435
pair_coeff 3 100 0.000000e+00 0.000000e+00 4.009755e+04 # CA2-CA52 type=non-native eps=0.002390 sigma=4.000000
pair_coeff 3 101 0.000000e+00 0.000000e+00 4.009755e+04 # CA2-SC52 type=non-native eps=0.002390 sigma=4.000000
pair_coeff 3 102 0.000000e+00 0.000000e+00 4.009755e+04 # CA2-CA53 type=non-native eps=0.002390 sigma=4.000000
pair_coeff 3 103 0.000000e+00 0.000000e+00 6.317440e+04 # CA2-SC53 type=non-native eps=0.002390 sigma=4.154435
pair_coeff 3 104 0.000000e+00 0.000000e+00 4.009755e+04 # CA2-CA54 type=non-native eps=0.002390 sigma=4.000000
pair_coeff 3 105 0.000000e+00 0.000000e+00 1.293687e+05 # CA2-SC54 type=non-native eps=0.002390 sigma=4.410142
pair_coeff 3 106 0.000000e+00 0.000000e+00 4.009755e+04 # CA2-CA55 type=non-native eps=0.002390 sigma=4.000000
pair_coeff 3 107 0.000000e+00 0.000000e+00 1.293687e+05 # CA2-SC55 type=non-native eps=0.002390 sigma=4.410142
pair_coeff 3 108 0.000000e+00 0.000000e+00 4.009755e+04 # CA2-CA56 type=non-native eps=0.002390 sigma=4.000000
pair_coeff 3 109 -1.789837e+04 0.000000e+00 8.377398e+08 # CA2-SC56 type=native eps=0.095600 sigma=6.738361
pair_coeff 3 110 0.000000e+00 0.000000e+00 4.009755e+04 # CA2-CA57 type=non-native eps=0.002390 sigma=4.000000
pair_coeff 3 111 0.000000e+00 0.000000e+00 1.737309e+05 # CA2-SC57 type=non-native eps=0.002390 sigma=4.519842
pair_coeff 3 112 0.000000e+00 0.000000e+00 4.009755e+04 # CA2-CA58 type=non-native eps=0.002390 sigma=4.000000
pair_coeff 3 113 0.000000e+00 0.000000e+00 2.286802e+04 # CA2-SC58 type=non-native eps=0.002390 sigma=3.817121
pair_coeff 3 114 0.000000e+00 0.000000e+00 4.009755e+04 # CA2-CA59 type=non-native eps=0.002390 sigma=4.000000
pair_coeff 3 115 0.000000e+00 0.000000e+00 1.085818e+04 # CA2-SC59 type=non-native eps=0.002390 sigma=3.587401
pair_coeff 3 116 0.000000e+00 0.000000e+00 4.009755e+04 # CA2-CA60 type=non-native eps=0.002390 sigma=4.000000
pair_coeff 3 117 0.000000e+00 0.000000e+00 2.286802e+04 # CA2-SC60 type=non-native eps=0.002390 sigma=3.817121
pair_coeff 3 118 0.000000e+00 0.000000e+00 4.009755e+04 # CA2-CA61 type=non-native eps=0.002390 sigma=4.000000
pair_coeff 3 119 0.000000e+00 0.000000e+00 4.009755e+04 # CA2-SC61 type=non-native eps=0.002390 sigma=4.000000
pair_coeff 3 120 0.000000e+00 0.000000e+00 4.009755e+04 # CA2-CA62 type=non-native eps=0.002390 sigma=4.000000
pair_coeff 3 121 0.000000e+00 0.000000e+00 3.442571e+03 # CA2-SC62 type=non-native eps=0.002390 sigma=3.259921
pair_coeff 3 122 0.000000e+00 0.000000e+00 4.009755e+04 # CA2-CA63 type=non-native eps=0.002390 sigma=4.000000
pair_coeff 3 123 0.000000e+00 0.000000e+00 4.009755e+04 # CA2-CA64 type=non-native eps=0.002390 sigma=4.000000
pair_coeff 3 124 0.000000e+00 0.000000e+00 4.009755e+04 # CA2-SC64 type=non-native eps=0.002390 sigma=4.000000
pair_coeff 3 125 0.000000e+00 0.000000e+00 4.009755e+04 # CA2-CA65 type=non-native eps=0.002390 sigma=4.000000
pair_coeff 3 126 0.000000e+00 0.000000e+00 4.009755e+04 # CA2-CA66 type=non-native eps=0.002390 sigma=4.000000
pair_coeff 3 127 0.000000e+00 0.000000e+00 6.317440e+04 # CA2-SC66 type=non-native eps=0.002390 sigma=4.154435
pair_coeff 3 128 0.000000e+00 0.000000e+00 4.009755e+04 # CA2-CA67 type=non-native eps=0.002390 sigma=4.000000
pair_coeff 3 129 0.000000e+00 0.000000e+00 6.317440e+04 # CA2-SC67 type=non-native eps=0.002390 sigma=4.154435
pair_coeff 3 130 0.000000e+00 0.000000e+00 4.009755e+04 # CA2-CA68 type=non-native eps=0.002390 sigma=4.000000
pair_coeff 3 131 0.000000e+00 0.000000e+00 1.085818e+04 # CA2-SC68 type=non-native eps=0.002390 sigma=3.587401
pair_coeff 3 132 0.000000e+00 0.000000e+00 4.009755e+04 # CA2-CA69 type=non-native eps=0.002390 sigma=4.000000
pair_coeff 3 133 0.000000e+00 0.000000e+00 6.317440e+04 # CA2-SC69 type=non-native eps=0.002390 sigma=4.154435
pair_coeff 3 134 0.000000e+00 0.000000e+00 4.009755e+04 # CA2-CA70 type=non-native eps=0.002390 sigma=4.000000
pair_coeff 3 135 0.000000e+00 0.000000e+00 1.293687e+05 # CA2-SC70 type=non-native eps=0.002390 sigma=4.410142
pair_coeff 3 136 0.000000e+00 0.000000e+00 4.009755e+04 # CA2-CA71 type=non-native eps=0.002390 sigma=4.000000
pair_coeff 3 137 0.000000e+00 0.000000e+00 6.317440e+04 # CA2-SC71 type=non-native eps=0.002390 sigma=4.154435
pair_coeff 3 138 0.000000e+00 0.000000e+00 4.009755e+04 # CA2-CA72 type=non-native eps=0.002390 sigma=4.000000
pair_coeff 3 139 0.000000e+00 0.000000e+00 4.009755e+04 # CA2-SC72 type=non-native eps=0.002390 sigma=4.000000
pair_coeff 3 140 0.000000e+00 0.000000e+00 4.009755e+04 # CA2-CA73 type=non-native eps=0.002390 sigma=4.000000
pair_coeff 3 141 0.000000e+00 0.000000e+00 1.293687e+05 # CA2-SC73 type=non-native eps=0.002390 sigma=4.410142
pair_coeff 3 142 0.000000e+00 0.000000e+00 4.009755e+04 # CA2-CA74 type=non-native eps=0.002390 sigma=4.000000
pair_coeff 3 143 -1.365382e+04 0.000000e+00 4.875179e+08 # CA2-SC74 type=native eps=0.095600 sigma=6.441115
pair_coeff 3 144 -2.857986e+03 0.000000e+00 3.417609e+07 # CA2-CA75 type=native eps=0.059750 sigma=5.367623
pair_coeff 3 145 -3.734339e+03 0.000000e+00 5.834849e+07 # CA2-SC75 type=native eps=0.059750 sigma=5.612301
pair_coeff 3 146 0.000000e+00 0.000000e+00 4.009755e+04 # CA2-CA76 type=non-native eps=0.002390 sigma=4.000000
pair_coeff 3 147 0.000000e+00 0.000000e+00 2.286802e+04 # CA2-SC76 type=non-native eps=0.002390 sigma=3.817121
pair_coeff 3 148 0.000000e+00 0.000000e+00 4.009755e+04 # CA2-CA77 type=non-native eps=0.002390 sigma=4.000000
pair_coeff 3 149 0.000000e+00 0.000000e+00 4.009755e+04 # CA2-SC77 type=non-native eps=0.002390 sigma=4.000000
pair_coeff 3 150 0.000000e+00 0.000000e+00 4.009755e+04 # CA2-CA78 type=non-native eps=0.002390 sigma=4.000000
pair_coeff 3 151 0.000000e+00 0.000000e+00 2.286802e+04 # CA2-SC78 type=non-native eps=0.002390 sigma=3.817121
pair_coeff 3 152 0.000000e+00 0.000000e+00 4.009755e+04 # CA2-CA79 type=non-native eps=0.002390 sigma=4.000000
pair_coeff 3 153 0.000000e+00 0.000000e+00 2.286802e+04 # CA2-SC79 type=non-native eps=0.002390 sigma=3.817121
pair_coeff 3 154 0.000000e+00 0.000000e+00 4.009755e+04 # CA2-CA80 type=non-native eps=0.002390 sigma=4.000000
pair_coeff 3 155 0.000000e+00 0.000000e+00 6.317440e+04 # CA2-SC80 type=non-native eps=0.002390 sigma=4.154435
pair_coeff 3 156 0.000000e+00 0.000000e+00 4.009755e+04 # CA2-CA81 type=non-native eps=0.002390 sigma=4.000000
pair_coeff 3 157 0.000000e+00 0.000000e+00 4.009755e+04 # CA2-SC81 type=non-native eps=0.002390 sigma=4.000000
pair_coeff 3 158 0.000000e+00 0.000000e+00 4.009755e+04 # CA2-CA82 type=non-native eps=0.002390 sigma=4.000000
pair_coeff 3 159 0.000000e+00 0.000000e+00 2.286802e+04 # CA2-SC82 type=non-native eps=0.002390 sigma=3.817121
pair_coeff 3 160 0.000000e+00 0.000000e+00 4.009755e+04 # CA2-CA83 type=non-native eps=0.002390 sigma=4.000000
pair_coeff 3 161 0.000000e+00 0.000000e+00 4.009755e+04 # CA2-CA84 type=non-native eps=0.002390 sigma=4.000000
pair_coeff 3 162 0.000000e+00 0.000000e+00 1.293687e+05 # CA2-SC84 type=non-native eps=0.002390 sigma=4.410142
pair_coeff 3 163 0.000000e+00 0.000000e+00 4.009755e+04 # CA2-CA85 type=non-native eps=0.002390 sigma=4.000000
pair_coeff 3 164 0.000000e+00 0.000000e+00 6.317440e+04 # CA2-SC85 type=non-native eps=0.002390 sigma=4.154435
pair_coeff 3 165 0.000000e+00 0.000000e+00 4.009755e+04 # CA2-CA86 type=non-native eps=0.002390 sigma=4.000000
pair_coeff 3 166 0.000000e+00 0.000000e+00 1.085818e+04 # CA2-SC86 type=non-native eps=0.002390 sigma=3.587401
pair_coeff 3 167 0.000000e+00 0.000000e+00 4.009755e+04 # CA2-CA87 type=non-native eps=0.002390 sigma=4.000000
pair_coeff 3 168 0.000000e+00 0.000000e+00 1.293687e+05 # CA2-SC87 type=non-native eps=0.002390 sigma=4.410142
pair_coeff 3 169 0.000000e+00 0.000000e+00 4.009755e+04 # CA2-CA88 type=non-native eps=0.002390 sigma=4.000000
pair_coeff 3 170 0.000000e+00 0.000000e+00 6.317440e+04 # CA2-SC88 type=non-native eps=0.002390 sigma=4.154435
pair_coeff 3 171 0.000000e+00 0.000000e+00 4.009755e+04 # CA2-CA89 type=non-native eps=0.002390 sigma=4.000000
pair_coeff 3 172 0.000000e+00 0.000000e+00 4.009755e+04 # CA2-SC89 type=non-native eps=0.002390 sigma=4.000000
pair_coeff 3 173 0.000000e+00 0.000000e+00 4.009755e+04 # CA2-CA90 type=non-native eps=0.002390 sigma=4.000000
pair_coeff 3 174 0.000000e+00 0.000000e+00 4.009755e+04 # CA2-SC90 type=non-native eps=0.002390 sigma=4.000000
pair_coeff 3 175 0.000000e+00 0.000000e+00 4.009755e+04 # CA2-CA91 type=non-native eps=0.002390 sigma=4.000000
pair_coeff 3 176 0.000000e+00 0.000000e+00 4.009755e+04 # CA2-SC91 type=non-native eps=0.002390 sigma=4.000000
pair_coeff 3 177 0.000000e+00 0.000000e+00 4.009755e+04 # CA2-CA92 type=non-native eps=0.002390 sigma=4.000000
pair_coeff 3 178 0.000000e+00 0.000000e+00 4.009755e+04 # CA2-SC92 type=non-native eps=0.002390 sigma=4.000000
pair_coeff 3 179 0.000000e+00 0.000000e+00 4.009755e+04 # CA2-CA93 type=non-native eps=0.002390 sigma=4.000000
pair_coeff 3 180 0.000000e+00 0.000000e+00 4.009755e+04 # CA2-SC93 type=non-native eps=0.002390 sigma=4.000000
pair_coeff 3 181 0.000000e+00 0.000000e+00 4.009755e+04 # CA2-CA94 type=non-native eps=0.002390 sigma=4.000000
pair_coeff 3 182 0.000000e+00 0.000000e+00 4.009755e+04 # CA2-SC94 type=non-native eps=0.002390 sigma=4.000000
pair_coeff 3 183 0.000000e+00 0.000000e+00 4.009755e+04 # CA2-CA95 type=non-native eps=0.002390 sigma=4.000000
pair_coeff 3 184 0.000000e+00 0.000000e+00 4.009755e+04 # CA2-CA96 type=non-native eps=0.002390 sigma=4.000000
pair_coeff 3 185 0.000000e+00 0.000000e+00 2.264320e+05 # CA2-SC96 type=non-native eps=0.002390 sigma=4.620741
pair_coeff 4 4 0.000000e+00 0.000000e+00 4.009755e+04 # SC2-SC2 type=non-native eps=0.002390 sigma=4.000000
pair_coeff 4 5 0.000000e+00 0.000000e+00 4.009755e+04 # SC2-CA3 type=non-native eps=0.002390 sigma=4.000000
pair_coeff 4 6 0.000000e+00 0.000000e+00 4.009755e+04 # SC2-SC3 type=non-native eps=0.002390 sigma=4.000000
pair_coeff 4 7 0.000000e+00 0.000000e+00 4.009755e+04 # SC2-CA4 type=non-native eps=0.002390 sigma=4.000000
pair_coeff 4 8 0.000000e+00 0.000000e+00 4.009755e+04 # SC2-SC4 type=non-native eps=0.002390 sigma=4.000000
pair_coeff 4 9 0.000000e+00 0.000000e+00 4.009755e+04 # SC2-CA5 type=non-native eps=0.002390 sigma=4.000000
pair_coeff 4 10 0.000000e+00 0.000000e+00 4.009755e+04 # SC2-CA6 type=non-native eps=0.002390 sigma=4.000000
pair_coeff 4 11 0.000000e+00 0.000000e+00 4.009755e+04 # SC2-SC6 type=non-native eps=0.002390 sigma=4.000000
pair_coeff 4 12 0.000000e+00 0.000000e+00 4.009755e+04 # SC2-CA7 type=non-native eps=0.002390 sigma=4.000000
pair_coeff 4 13 0.000000e+00 0.000000e+00 4.009755e+04 # SC2-SC7 type=non-native eps=0.002390 sigma=4.000000
pair_coeff 4 14 0.000000e+00 0.000000e+00 4.009755e+04 # SC2-CA8 type=non-native eps=0.002390 sigma=4.000000
pair_coeff 4 15 0.000000e+00 0.000000e+00 4.009755e+04 # SC2-SC8 type=non-native eps=0.002390 sigma=4.000000
pair_coeff 4 16 0.000000e+00 0.000000e+00 4.009755e+04 # SC2-CA9 type=non-native eps=0.002390 sigma=4.000000
pair_coeff 4 17 0.000000e+00 0.000000e+00 6.317440e+04 # SC2-SC9 type=non-native eps=0.002390 sigma=4.154435
pair_coeff 4 18 0.000000e+00 0.000000e+00 4.009755e+04 # SC2-CA10 type=non-native eps=0.002390 sigma=4.000000
pair_coeff 4 19 0.000000e+00 0.000000e+00 4.009755e+04 # SC2-SC10 type=non-native eps=0.002390 sigma=4.000000
pair_coeff 4 20 0.000000e+00 0.000000e+00 4.009755e+04 # SC2-CA11 type=non-native eps=0.002390 sigma=4.000000
pair_coeff 4 21 0.000000e+00 0.000000e+00 6.317440e+04 # SC2-SC11 type=non-native eps=0.002390 sigma=4.154435
pair_coeff 4 22 0.000000e+00 0.000000e+00 4.009755e+04 # SC2-CA12 type=non-native eps=0.002390 sigma=4.000000
pair_coeff 4 23 0.000000e+00 0.000000e+00 4.009755e+04 # SC2-SC12 type=non-native eps=0.002390 sigma=4.000000
pair_coeff 4 24 0.000000e+00 0.000000e+00 4.009755e+04 # SC2-CA13 type=non-native eps=0.002390 sigma=4.000000
pair_coeff 4 25 0.000000e+00 0.000000e+00 6.317440e+04 # SC2-SC13 type=non-native eps=0.002390 sigma=4.154435
pair_coeff 4 26 0.000000e+00 0.000000e+00 4.009755e+04 # SC2-CA14 type=non-native eps=0.002390 sigma=4.000000
pair_coeff 4 27 0.000000e+00 0.000000e+00 4.009755e+04 # SC2-SC14 type=non-native eps=0.002390 sigma=4.000000
pair_coeff 4 28 0.000000e+00 0.000000e+00 4.009755e+04 # SC2-CA15 type=non-native eps=0.002390 sigma=4.000000
pair_coeff 4 29 0.000000e+00 0.000000e+00 2.286802e+04 # SC2-SC15 type=non-native eps=0.002390 sigma=3.817121
pair_coeff 4 30 0.000000e+00 0.000000e+00 4.009755e+04 # SC2-CA16 type=non-native eps=0.002390 sigma=4.000000
pair_coeff 4 31 0.000000e+00 0.000000e+00 2.286802e+04 # SC2-SC16 type=non-native eps=0.002390 sigma=3.817121
pair_coeff 4 32 0.000000e+00 0.000000e+00 4.009755e+04 # SC2-CA17 type=non-native eps=0.002390 sigma=4.000000
pair_coeff 4 33 0.000000e+00 0.000000e+00 4.009755e+04 # SC2-SC17 type=non-native eps=0.002390 sigma=4.000000
pair_coeff 4 34 0.000000e+00 0.000000e+00 4.009755e+04 # SC2-CA18 type=non-native eps=0.002390 sigma=4.000000
pair_coeff 4 35 0.000000e+00 0.000000e+00 4.009755e+04 # SC2-SC18 type=non-native eps=0.002390 sigma=4.000000
pair_coeff 4 36 0.000000e+00 0.000000e+00 4.009755e+04 # SC2-CA19 type=non-native eps=0.002390 sigma=4.000000
pair_coeff 4 37 0.000000e+00 0.000000e+00 4.009755e+04 # SC2-SC19 type=non-native eps=0.002390 sigma=4.000000
pair_coeff 4 38 0.000000e+00 0.000000e+00 4.009755e+04 # SC2-CA20 type=non-native eps=0.002390 sigma=4.000000
pair_coeff 4 39 0.000000e+00 0.000000e+00 4.009755e+04 # SC2-SC20 type=non-native eps=0.002390 sigma=4.000000
pair_coeff 4 40 0.000000e+00 0.000000e+00 4.009755e+04 # SC2-CA21 type=non-native eps=0.002390 sigma=4.000000
pair_coeff 4 41 0.000000e+00 0.000000e+00 1.293687e+05 # SC2-SC21 type=non-native eps=0.002390 sigma=4.410142
pair_coeff 4 42 0.000000e+00 0.000000e+00 4.009755e+04 # SC2-CA22 type=non-native eps=0.002390 sigma=4.000000
pair_coeff 4 43 0.000000e+00 0.000000e+00 4.009755e+04 # SC2-CA23 type=non-native eps=0.002390 sigma=4.000000
pair_coeff 4 44 0.000000e+00 0.000000e+00 6.317440e+04 # SC2-SC23 type=non-native eps=0.002390 sigma=4.154435
pair_coeff 4 45 0.000000e+00 0.000000e+00 4.009755e+04 # SC2-CA24 type=non-native eps=0.002390 sigma=4.000000
pair_coeff 4 46 0.000000e+00 0.000000e+00 6.317440e+04 # SC2-SC24 type=non-native eps=0.002390 sigma=4.154435
pair_coeff 4 47 0.000000e+00 0.000000e+00 4.009755e+04 # SC2-CA25 type=non-native eps=0.002390 sigma=4.000000
pair_coeff 4 48 -3.182892e+04 0.000000e+00 1.059707e+09 # SC2-SC25 type=native eps=0.239000 sigma=6.366474
pair_coeff 4 49 0.000000e+00 0.000000e+00 4.009755e+04 # SC2-CA26 type=non-native eps=0.002390 sigma=4.000000
pair_coeff 4 50 0.000000e+00 0.000000e+00 4.009755e+04 # SC2-SC26 type=non-native eps=0.002390 sigma=4.000000
pair_coeff 4 51 0.000000e+00 0.000000e+00 4.009755e+04 # SC2-CA27 type=non-native eps=0.002390 sigma=4.000000
pair_coeff 4 52 0.000000e+00 0.000000e+00 4.009755e+04 # SC2-SC27 type=non-native eps=0.002390 sigma=4.000000
pair_coeff 4 53 0.000000e+00 0.000000e+00 4.009755e+04 # SC2-CA28 type=non-native eps=0.002390 sigma=4.000000
pair_coeff 4 54 -3.575682e+04 0.000000e+00 1.337395e+09 # SC2-SC28 type=native eps=0.239000 sigma=6.491153
pair_coeff 4 55 0.000000e+00 0.000000e+00 4.009755e+04 # SC2-CA29 type=non-native eps=0.002390 sigma=4.000000
pair_coeff 4 56 -1.692983e+04 0.000000e+00 3.747637e+08 # SC2-SC29 type=native eps=0.191200 sigma=5.947792
pair_coeff 4 57 0.000000e+00 0.000000e+00 4.009755e+04 # SC2-CA30 type=non-native eps=0.002390 sigma=4.000000
pair_coeff 4 58 0.000000e+00 0.000000e+00 6.317440e+04 # SC2-SC30 type=non-native eps=0.002390 sigma=4.154435
pair_coeff 4 59 0.000000e+00 0.000000e+00 4.009755e+04 # SC2-CA31 type=non-native eps=0.002390 sigma=4.000000
pair_coeff 4 60 0.000000e+00 0.000000e+00 4.009755e+04 # SC2-SC31 type=non-native eps=0.002390 sigma=4.000000
pair_coeff 4 61 0.000000e+00 0.000000e+00 4.009755e+04 # SC2-CA32 type=non-native eps=0.002390 sigma=4.000000
pair_coeff 4 62 0.000000e+00 0.000000e+00 4.009755e+04 # SC2-SC32 type=non-native eps=0.002390 sigma=4.000000
pair_coeff 4 63 0.000000e+00 0.000000e+00 4.009755e+04 # SC2-CA33 type=non-native eps=0.002390 sigma=4.000000
pair_coeff 4 64 0.000000e+00 0.000000e+00 4.009755e+04 # SC2-SC33 type=non-native eps=0.002390 sigma=4.000000
pair_coeff 4 65 0.000000e+00 0.000000e+00 4.009755e+04 # SC2-CA34 type=non-native eps=0.002390 sigma=4.000000
pair_coeff 4 66 0.000000e+00 0.000000e+00 6.317440e+04 # SC2-SC34 type=non-native eps=0.002390 sigma=4.154435
pair_coeff 4 67 0.000000e+00 0.000000e+00 4.009755e+04 # SC2-CA35 type=non-native eps=0.002390 sigma=4.000000
pair_coeff 4 68 0.000000e+00 0.000000e+00 4.009755e+04 # SC2-SC35 type=non-native eps=0.002390 sigma=4.000000
pair_coeff 4 69 0.000000e+00 0.000000e+00 4.009755e+04 # SC2-CA36 type=non-native eps=0.002390 sigma=4.000000
pair_coeff 4 70 0.000000e+00 0.000000e+00 6.317440e+04 # SC2-SC36 type=non-native eps=0.002390 sigma=4.154435
pair_coeff 4 71 0.000000e+00 0.000000e+00 4.009755e+04 # SC2-CA37 type=non-native eps=0.002390 sigma=4.000000
pair_coeff 4 72 0.000000e+00 0.000000e+00 1.737309e+05 # SC2-SC37 type=non-native eps=0.002390 sigma=4.519842
pair_coeff 4 73 0.000000e+00 0.000000e+00 4.009755e+04 # SC2-CA38 type=non-native eps=0.002390 sigma=4.000000
pair_coeff 4 74 0.000000e+00 0.000000e+00 4.009755e+04 # SC2-CA39 type=non-native eps=0.002390 sigma=4.000000
pair_coeff 4 75 0.000000e+00 0.000000e+00 2.286802e+04 # SC2-SC39 type=non-native eps=0.002390 sigma=3.817121
pair_coeff 4 76 0.000000e+00 0.000000e+00 4.009755e+04 # SC2-CA40 type=non-native eps=0.002390 sigma=4.000000
pair_coeff 4 77 0.000000e+00 0.000000e+00 4.009755e+04 # SC2-SC40 type=non-native eps=0.002390 sigma=4.000000
pair_coeff 4 78 0.000000e+00 0.000000e+00 4.009755e+04 # SC2-CA41 type=non-native eps=0.002390 sigma=4.000000
pair_coeff 4 79 0.000000e+00 0.000000e+00 2.286802e+04 # SC2-SC41 type=non-native eps=0.002390 sigma=3.817121
pair_coeff 4 80 0.000000e+00 0.000000e+00 4.009755e+04 # SC2-CA42 type=non-native eps=0.002390 sigma=4.000000
pair_coeff 4 81 0.000000e+00 0.000000e+00 6.317440e+04 # SC2-SC42 type=non-native eps=0.002390 sigma=4.154435
pair_coeff 4 82 0.000000e+00 0.000000e+00 4.009755e+04 # SC2-CA43 type=non-native eps=0.002390 sigma=4.000000
pair_coeff 4 83 0.000000e+00 0.000000e+00 4.009755e+04 # SC2-SC43 type=non-native eps=0.002390 sigma=4.000000
pair_coeff 4 84 0.000000e+00 0.000000e+00 4.009755e+04 # SC2-CA44 type=non-native eps=0.002390 sigma=4.000000
pair_coeff 4 85 0.000000e+00 0.000000e+00 4.009755e+04 # SC2-SC44 type=non-native eps=0.002390 sigma=4.000000
pair_coeff 4 86 0.000000e+00 0.000000e+00 4.009755e+04 # SC2-CA45 type=non-native eps=0.002390 sigma=4.000000
pair_coeff 4 87 0.000000e+00 0.000000e+00 6.317440e+04 # SC2-SC45 type=non-native eps=0.002390 sigma=4.154435
pair_coeff 4 88 0.000000e+00 0.000000e+00 4.009755e+04 # SC2-CA46 type=non-native eps=0.002390 sigma=4.000000
pair_coeff 4 89 0.000000e+00 0.000000e+00 4.009755e+04 # SC2-SC46 type=non-native eps=0.002390 sigma=4.000000
pair_coeff 4 90 0.000000e+00 0.000000e+00 4.009755e+04 # SC2-CA47 type=non-native eps=0.002390 sigma=4.000000
pair_coeff 4 91 0.000000e+00 0.000000e+00 4.009755e+04 # SC2-SC47 type=non-native eps=0.002390 sigma=4.000000
pair_coeff 4 92 0.000000e+00 0.000000e+00 4.009755e+04 # SC2-CA48 type=non-native eps=0.002390 sigma=4.000000
pair_coeff 4 93 0.000000e+00 0.000000e+00 6.317440e+04 # SC2-SC48 type=non-native eps=0.002390 sigma=4.154435
pair_coeff 4 94 0.000000e+00 0.000000e+00 4.009755e+04 # SC2-CA49 type=non-native eps=0.002390 sigma=4.000000
pair_coeff 4 95 0.000000e+00 0.000000e+00 2.286802e+04 # SC2-SC49 type=non-native eps=0.002390 sigma=3.817121
pair_coeff 4 96 0.000000e+00 0.000000e+00 4.009755e+04 # SC2-CA50 type=non-native eps=0.002390 sigma=4.000000
pair_coeff 4 97 0.000000e+00 0.000000e+00 1.085818e+04 # SC2-SC50 type=non-native eps=0.002390 sigma=3.587401
pair_coeff 4 98 0.000000e+00 0.000000e+00 4.009755e+04 # SC2-CA51 type=non-native eps=0.002390 sigma=4.000000
pair_coeff 4 99 0.000000e+00 0.000000e+00 6.317440e+04 # SC2-SC51 type=non-native eps=0.002390 sigma=4.154435
pair_coeff 4 100 0.000000e+00 0.000000e+00 4.009755e+04 # SC2-CA52 type=non-native eps=0.002390 sigma=4.000000
pair_coeff 4 101 0.000000e+00 0.000000e+00 4.009755e+04 # SC2-SC52 type=non-native eps=0.002390 sigma=4.000000
pair_coeff 4 102 0.000000e+00 0.000000e+00 4.009755e+04 # SC2-CA53 type=non-native eps=0.002390 sigma=4.000000
pair_coeff 4 103 0.000000e+00 0.000000e+00 6.317440e+04 # SC2-SC53 type=non-native eps=0.002390 sigma=4.154435
pair_coeff 4 104 0.000000e+00 0.000000e+00 4.009755e+04 # SC2-CA54 type=non-native eps=0.002390 sigma=4.000000
pair_coeff 4 105 0.000000e+00 0.000000e+00 1.293687e+05 # SC2-SC54 type=non-native eps=0.002390 sigma=4.410142
pair_coeff 4 106 0.000000e+00 0.000000e+00 4.009755e+04 # SC2-CA55 type=non-native eps=0.002390 sigma=4.000000
pair_coeff 4 107 0.000000e+00 0.000000e+00 1.293687e+05 # SC2-SC55 type=non-native eps=0.002390 sigma=4.410142
pair_coeff 4 108 0.000000e+00 0.000000e+00 4.009755e+04 # SC2-CA56 type=non-native eps=0.002390 sigma=4.000000
pair_coeff 4 109 -4.751890e+03 0.000000e+00 3.936621e+07 # SC2-SC56 type=native eps=0.143400 sigma=5.049107
pair_coeff 4 110 0.000000e+00 0.000000e+00 4.009755e+04 # SC2-CA57 type=non-native eps=0.002390 sigma=4.000000
pair_coeff 4 111 0.000000e+00 0.000000e+00 1.737309e+05 # SC2-SC57 type=non-native eps=0.002390 sigma=4.519842
pair_coeff 4 112 0.000000e+00 0.000000e+00 4.009755e+04 # SC2-CA58 type=non-native eps=0.002390 sigma=4.000000
pair_coeff 4 113 0.000000e+00 0.000000e+00 2.286802e+04 # SC2-SC58 type=non-native eps=0.002390 sigma=3.817121
pair_coeff 4 114 0.000000e+00 0.000000e+00 4.009755e+04 # SC2-CA59 type=non-native eps=0.002390 sigma=4.000000
pair_coeff 4 115 0.000000e+00 0.000000e+00 1.085818e+04 # SC2-SC59 type=non-native eps=0.002390 sigma=3.587401
pair_coeff 4 116 0.000000e+00 0.000000e+00 4.009755e+04 # SC2-CA60 type=non-native eps=0.002390 sigma=4.000000
pair_coeff 4 117 0.000000e+00 0.000000e+00 2.286802e+04 # SC2-SC60 type=non-native eps=0.002390 sigma=3.817121
pair_coeff 4 118 0.000000e+00 0.000000e+00 4.009755e+04 # SC2-CA61 type=non-native eps=0.002390 sigma=4.000000
pair_coeff 4 119 0.000000e+00 0.000000e+00 4.009755e+04 # SC2-SC61 type=non-native eps=0.002390 sigma=4.000000
pair_coeff 4 120 0.000000e+00 0.000000e+00 4.009755e+04 # SC2-CA62 type=non-native eps=0.002390 sigma=4.000000
pair_coeff 4 121 0.000000e+00 0.000000e+00 3.442571e+03 # SC2-SC62 type=non-native eps=0.002390 sigma=3.259921
pair_coeff 4 122 0.000000e+00 0.000000e+00 4.009755e+04 # SC2-CA63 type=non-native eps=0.002390 sigma=4.000000
pair_coeff 4 123 0.000000e+00 0.000000e+00 4.009755e+04 # SC2-CA64 type=non-native eps=0.002390 sigma=4.000000
pair_coeff 4 124 0.000000e+00 0.000000e+00 4.009755e+04 # SC2-SC64 type=non-native eps=0.002390 sigma=4.000000
pair_coeff 4 125 0.000000e+00 0.000000e+00 4.009755e+04 # SC2-CA65 type=non-native eps=0.002390 sigma=4.000000
pair_coeff 4 126 0.000000e+00 0.000000e+00 4.009755e+04 # SC2-CA66 type=non-native eps=0.002390 sigma=4.000000
pair_coeff 4 127 0.000000e+00 0.000000e+00 6.317440e+04 # SC2-SC66 type=non-native eps=0.002390 sigma=4.154435
pair_coeff 4 128 0.000000e+00 0.000000e+00 4.009755e+04 # SC2-CA67 type=non-native eps=0.002390 sigma=4.000000
pair_coeff 4 129 0.000000e+00 0.000000e+00 6.317440e+04 # SC2-SC67 type=non-native eps=0.002390 sigma=4.154435
pair_coeff 4 130 0.000000e+00 0.000000e+00 4.009755e+04 # SC2-CA68 type=non-native eps=0.002390 sigma=4.000000
pair_coeff 4 131 0.000000e+00 0.000000e+00 1.085818e+04 # SC2-SC68 type=non-native eps=0.002390 sigma=3.587401
pair_coeff 4 132 0.000000e+00 0.000000e+00 4.009755e+04 # SC2-CA69 type=non-native eps=0.002390 sigma=4.000000
pair_coeff 4 133 0.000000e+00 0.000000e+00 6.317440e+04 # SC2-SC69 type=non-native eps=0.002390 sigma=4.154435
pair_coeff 4 134 0.000000e+00 0.000000e+00 4.009755e+04 # SC2-CA70 type=non-native eps=0.002390 sigma=4.000000
pair_coeff 4 135 0.000000e+00 0.000000e+00 1.293687e+05 # SC2-SC70 type=non-native eps=0.002390 sigma=4.410142
pair_coeff 4 136 0.000000e+00 0.000000e+00 4.009755e+04 # SC2-CA71 type=non-native eps=0.002390 sigma=4.000000
pair_coeff 4 137 0.000000e+00 0.000000e+00 6.317440e+04 # SC2-SC71 type=non-native eps=0.002390 sigma=4.154435
pair_coeff 4 138 -3.561608e+04 0.000000e+00 3.980664e+09 # SC2-CA72 type=native eps=0.079667 sigma=7.790343
pair_coeff 4 139 -2.680973e+04 0.000000e+00 1.127764e+09 # SC2-SC72 type=native eps=0.159333 sigma=6.619512
pair_coeff 4 140 -1.548521e+05 0.000000e+00 2.508282e+10 # SC2-CA73 type=native eps=0.239000 sigma=8.287335
pair_coeff 4 141 0.000000e+00 0.000000e+00 1.293687e+05 # SC2-SC73 type=non-native eps=0.002390 sigma=4.410142
pair_coeff 4 142 -2.493657e+03 0.000000e+00 3.252261e+07 # SC2-CA74 type=native eps=0.047800 sigma=5.445818
pair_coeff 4 143 -7.943021e+03 0.000000e+00 1.649885e+08 # SC2-SC74 type=native eps=0.095600 sigma=5.885043
pair_coeff 4 144 -8.751311e+03 0.000000e+00 3.204412e+08 # SC2-CA75 type=native eps=0.059750 sigma=6.468211
pair_coeff 4 145 -1.563284e+04 0.000000e+00 1.022534e+09 # SC2-SC75 type=native eps=0.059750 sigma=7.124892
pair_coeff 4 146 0.000000e+00 0.000000e+00 4.009755e+04 # SC2-CA76 type=non-native eps=0.002390 sigma=4.000000
pair_coeff 4 147 0.000000e+00 0.000000e+00 2.286802e+04 # SC2-SC76 type=non-native eps=0.002390 sigma=3.817121
pair_coeff 4 148 0.000000e+00 0.000000e+00 4.009755e+04 # SC2-CA77 type=non-native eps=0.002390 sigma=4.000000
pair_coeff 4 149 0.000000e+00 0.000000e+00 4.009755e+04 # SC2-SC77 type=non-native eps=0.002390 sigma=4.000000
pair_coeff 4 150 0.000000e+00 0.000000e+00 4.009755e+04 # SC2-CA78 type=non-native eps=0.002390 sigma=4.000000
pair_coeff 4 151 0.000000e+00 0.000000e+00 2.286802e+04 # SC2-SC78 type=non-native eps=0.002390 sigma=3.817121
pair_coeff 4 152 0.000000e+00 0.000000e+00 4.009755e+04 # SC2-CA79 type=non-native eps=0.002390 sigma=4.000000
pair_coeff 4 153 0.000000e+00 0.000000e+00 2.286802e+04 # SC2-SC79 type=non-native eps=0.002390 sigma=3.817121
pair_coeff 4 154 0.000000e+00 0.000000e+00 4.009755e+04 # SC2-CA80 type=non-native eps=0.002390 sigma=4.000000
pair_coeff 4 155 0.000000e+00 0.000000e+00 6.317440e+04 # SC2-SC80 type=non-native eps=0.002390 sigma=4.154435
pair_coeff 4 156 0.000000e+00 0.000000e+00 4.009755e+04 # SC2-CA81 type=non-native eps=0.002390 sigma=4.000000
pair_coeff 4 157 0.000000e+00 0.000000e+00 4.009755e+04 # SC2-SC81 type=non-native eps=0.002390 sigma=4.000000
pair_coeff 4 158 0.000000e+00 0.000000e+00 4.009755e+04 # SC2-CA82 type=non-native eps=0.002390 sigma=4.000000
pair_coeff 4 159 0.000000e+00 0.000000e+00 2.286802e+04 # SC2-SC82 type=non-native eps=0.002390 sigma=3.817121
pair_coeff 4 160 0.000000e+00 0.000000e+00 4.009755e+04 # SC2-CA83 type=non-native eps=0.002390 sigma=4.000000
pair_coeff 4 161 0.000000e+00 0.000000e+00 4.009755e+04 # SC2-CA84 type=non-native eps=0.002390 sigma=4.000000
[...]
 4788000    172.28411    106.54848   -3.6186126    31.567163    42.238389    36.361544 
 4789000    165.88779     99.12099   -3.9325489    31.880899    34.388488    36.784152 
 4790000    160.68531     101.6507   -4.3592951     28.11479    41.802354     36.09285 
 4791000    154.95656    98.383039   -4.9692398    32.566489    35.229196    35.556594 
 4792000    167.20908    98.191893   -5.0012468     29.26698    38.084985    35.841175 
 4793000    180.31556    105.04215   -5.2196198    30.274434    42.514181    37.473157 
 4794000    159.09173    109.10447   -4.7866823    30.387627    45.103739     38.39979 
 4795000    156.43806    107.56175   -4.6513357    34.918627    41.919659    35.374801 
 4796000    167.27411    96.933213   -2.9941017    27.316322    35.126353     37.48464 
 4797000    165.73597    100.99535   -4.7859363    34.369827    36.963129    34.448326 
 4798000    164.42606    96.587172    -5.829662    27.950627     38.61563    35.850577 
 4799000    165.26791    98.348352   -7.3388814    27.440849    42.248812    35.997572 
 4800000    193.42215    92.366267   -5.5695356    28.101825    37.689573    32.144405 
 4801000    168.44926    100.99801   -5.7338997    33.166556    40.791061    32.774295 
 4802000    171.16198    93.178689   -5.1899962    33.036957    32.348806    32.982922 
 4803000     177.2414    86.807296   -5.6584382    28.518853    31.265008    32.681873 
 4804000    182.44446    103.33435   -6.3594014    27.605401    45.207746    36.880607 
 4805000    183.02687    113.68041   -4.8370619    35.861305    44.244125    38.412039 
 4806000    181.31208    118.67227   -6.4879216    34.645297    52.789648    37.725249 
 4807000    189.84187    102.46546   -6.3135224    37.209497    37.780802    33.788687 
 4808000    187.47663      92.5664   -5.8025573    30.220812    32.952053    35.196093 
 4809000    188.76112     95.31333   -4.6374808     30.92625    34.735436    34.289125 
 4810000    188.15143    100.00783   -5.5249859     29.29908    42.379368    33.854372 
 4811000    183.80632    97.166599    -5.479362     31.24737    38.145808    33.252783 
 4812000    172.76819    104.90922   -5.2334657    35.583756    40.143129    34.415799 
 4813000    186.62898    105.58716    -5.755087     34.39238    43.033172    33.916693 
 4814000     168.7497    98.035295   -5.9103755    32.357181     38.14636     33.44213 
 4815000    167.48645    101.23317   -4.5120536    30.094142    36.123885    39.527196 
 4816000    188.49282     103.8843   -6.3152481    30.849563    43.251748    36.098236 
 4817000    188.94583    108.26199    -5.882194    37.344864    42.330036    34.469281 
 4818000    202.64418    107.80138   -4.2476494    28.981168    49.125608    33.942251 
 4819000    184.09112    116.42324   -5.6690294    39.773576    48.050816    34.267881 
 4820000    193.19127    111.31874   -5.8346817    38.883891    40.534359    37.735171 
 4821000    196.87764    106.36398   -6.7400971      32.3596    43.724671     37.01981 
 4822000    184.80303    111.22426   -2.8012103    36.049588    42.285935    35.689952 
 4823000    184.67168    108.06526   -5.2838739    35.814263    41.601421    35.933453 
 4824000    180.38698    100.70886   -4.7923897    35.365729    37.067868    33.067648 
 4825000    191.13478    95.152565   -4.8186012    32.077019     36.87734    31.016807 
 4826000     186.9114    94.601392   -5.9884966    29.532256    39.088031    31.969601 
 4827000    192.37013    102.94273   -5.7392708    28.724025     42.66939    37.288581 
 4828000    166.78861    104.61708   -5.1465773    31.513828    45.127846    33.121985 
 4829000    181.38789    101.10702   -5.8181751    29.967238    41.795981    35.161975 
 4830000    179.61155    93.747682   -5.9566463    25.932021    42.094295    31.678012 
 4831000    174.88961    104.51905   -5.1934507    34.701604    44.026729    30.984168 
 4832000     188.4829    101.83096   -5.2347842    33.400747    42.175737    31.489257 
 4833000    170.20289    108.61278   -5.3483775    40.786439    39.811667    33.363051 
 4834000    183.59487     104.5579   -5.1092444    33.667999    41.890213    34.108931 
 4835000    182.14104    106.40851   -6.0359769    36.792353    36.630245    39.021884 
 4836000    169.01561    107.40437   -5.3446875    35.907367    35.474345    41.367346 
 4837000     182.1531    110.68465   -6.6904155     34.83907    41.243764    41.292234 
 4838000     170.8546    96.637269   -7.3499919    28.487539    39.214653    36.285069 
 4839000    178.37386    97.123258   -7.4883903    27.008738    39.655497    37.947414 
 4840000    159.04385    97.671679   -5.4326579    28.367282    37.055756    37.681299 
 4841000    166.94903    98.081802   -5.6171406    30.484309    34.667006    38.547628 
 4842000    151.39312    103.63555   -6.6414681    35.230791    38.339094    36.707133 
 4843000    175.97771    102.19859   -6.5045763    27.214562    44.545856    36.942748 
 4844000    168.51746    103.58334   -6.3933096    30.145691    43.044721    36.786234 
 4845000    176.14334    100.04847   -5.6598107    31.419928    40.703631    33.584725 
 4846000    172.14594    103.75809   -4.6457423    33.992244    42.053611    32.357974 
 4847000     175.4994     103.6739   -6.9415042    32.043677    40.443644    38.128081 
 4848000    165.23428    99.460003   -6.6266256    27.115674    42.356529    36.614426 
 4849000     174.3614      101.224   -5.3269496    28.485125    42.037715    36.028111 
 4850000    186.11806    99.017502   -5.1665089    31.695074    37.921107     34.56783 
 4851000    171.32826    98.691869   -4.0347788    31.564048    33.945029    37.217571 
 4852000    171.20557    94.374095   -6.6915776    34.662056    34.065679    32.337937 
 4853000    165.17425    95.345286   -8.5796818    29.694017    38.238157    35.992795 
 4854000    163.92987     90.14331   -8.1288764    27.781944    36.296205    34.194037 
 4855000    161.30349    94.264688   -7.5451973    33.658045    36.303986    31.847853 
 4856000     179.1181    94.783374   -7.9711142    31.813537    38.032418    32.908533 
 4857000    168.50812    108.23745   -7.7501072    36.626654    47.833728     31.52718 
 4858000    183.86243    106.14845   -5.9191127    38.792918    40.791805    32.482842 
 4859000    184.70109    106.20334   -8.6046065    35.808489    46.749508    32.249952 
 4860000    176.94849    103.74447   -8.3803132    36.363713    42.152237    33.608828 
 4861000     172.1691    92.627087   -7.2726279    30.891825    35.704552    33.303338 
 4862000    165.25807    97.173592    -7.111092    32.847381    34.737085    36.700219 
 4863000    182.90601    92.772701   -5.0578384    28.642207    37.923126    31.265207 
 4864000    156.82734    96.738862   -4.9195178    31.414157    37.411121    32.833102 
 4865000    172.06092    100.02575   -3.6057844    36.321368    34.077559    33.232608 
 4866000    165.11298    92.491361    -4.482109    27.895423     32.54692    36.531128 
 4867000    170.25044    104.75893   -4.0909268    31.610102     39.60273    37.637021 
 4868000    179.40634    107.58852   -4.5070082    33.838698    42.193647    36.063179 
 4869000    173.26706    99.413181   -3.9673096    27.675894    43.122209    32.582388 
 4870000    181.53434    97.805376   -5.1951529    31.674177    38.128645    33.197707 
 4871000    174.90184    100.51974   -4.5996848    28.543482    39.374544    37.201398 
 4872000    173.54683    98.595618   -5.3977595    27.133789    44.522151    32.337436 
 4873000    183.97791    105.63436    -4.661777    34.906902    42.419108    32.970122 
 4874000    193.33223    111.26947   -5.2912685    33.677967    45.867915    37.014853 
 4875000     191.3195    111.89497   -5.6010256    30.185807    51.618197    35.691993 
 4876000    194.71901    106.90417   -4.0447896    33.569367    44.800708    32.578884 
 4877000    185.78544    101.58328   -4.2562094    29.254798    40.772533    35.812157 
 4878000     162.5628    110.09245   -4.9139516      36.3264    41.773173    36.906834 
 4879000    186.52154    99.932398   -5.7738495    27.426617    42.805408    35.474223 
 4880000    179.45378    108.37317   -5.3781118    33.672373    40.166297    39.912612 
 4881000    198.25129    103.36681   -3.7855351    31.578273    38.347915    37.226157 
 4882000    165.76822    115.90436   -4.8042401     31.32423    51.711479    37.672895 
 4883000     173.3049    105.77782   -4.9399669      37.5816    36.641324    36.494861 
 4884000    192.84391    104.01805    -5.438696    34.658747    39.220517    35.577484 
 4885000    188.62395    106.45424   -5.4177386    38.219024    44.861734    28.791225 
 4886000    186.32477     107.0778   -5.3715996    37.486393    42.280386    32.682626 
 4887000    183.27788    112.47116   -5.1439734    42.558425    41.227345    33.829361 
 4888000    192.64745    107.77667   -6.0039071    38.277516    40.530006    34.973051 
 4889000    175.96635    103.24046   -5.4129967    33.750563    39.889455    35.013443 
 4890000    187.37803    96.208129   -5.0417779    33.350734    35.015353     32.88382 
 4891000    178.81773    102.17884   -5.7691781    28.338602    44.677594    34.931823 
 4892000    174.14617    93.688907   -5.4350617    28.676258    36.600304    33.847406 
 4893000    176.08986     101.3188   -6.0166991    30.211021     38.34101    38.783466 
 4894000    183.36432    105.43669   -7.0518437    38.336503    40.215797     33.93623 
 4895000    189.48246    105.78966   -6.8653455    33.051238    46.194907    33.408865 
 4896000    177.77974    104.15691    -5.486749    35.412968    39.261446    34.969241 
 4897000    174.11497    114.72281   -4.7828872    37.763464    45.167582    36.574647 
 4898000    182.37348    103.03836   -4.8843197    35.784072    39.138506    33.000104 
 4899000    170.59637    105.19493   -6.1688954    35.324159     41.07519    34.964472 
 4900000    179.01063    96.562312   -7.2102139    30.407282    38.390687    34.974557 
 4901000    163.84397    102.62317   -5.1818045    31.557715    41.268809    34.978448 
 4902000    169.33329     105.9269    -6.122601     34.00523    45.211126    32.833145 
 4903000    182.62094    101.17103   -7.2185193    32.869834    42.563037    32.956677 
 4904000    182.85071    96.969926   -7.8141039    29.096031    41.924208    33.763791 
 4905000    175.04788    94.764734   -6.2073712    33.553134    33.572371      33.8466 
 4906000    166.57751     93.26559   -5.4110031    33.189067    35.767775     29.71975 
 4907000    169.88425    95.482461   -6.0432643    29.148834    39.204499    33.172393 
 4908000     168.8167    93.721092   -6.6096697    29.794412    37.419322    33.117028 
 4909000    158.46426    106.30157   -4.3469799    35.162586    39.544551    35.941408 
 4910000    168.37558    102.67861   -4.5261565    30.095537    42.320415    34.788814 
 4911000    183.98524    101.47863   -5.0012851    33.836051    39.035553    33.608314 
 4912000    179.59794     103.1493   -7.2416016    31.096069    48.134388    31.160446 
 4913000    173.55257    100.20761   -5.7375593    30.644911    42.160941    33.139315 
 4914000    172.81334    104.88329   -5.4620819    33.211978    43.809673    33.323722 
 4915000    166.26928    106.15091   -4.2416341    34.873791    40.129341    35.389414 
 4916000    184.37188    100.77585   -5.9901285    33.411061    34.259888    39.095026 
 4917000    180.44458    106.45035   -7.0412741    36.272655    41.967692     35.25128 
 4918000    184.69594    108.50851   -5.6117831    38.879694    40.293388    34.947211 
 4919000    172.05032    100.13942   -6.5316916    33.353243    39.573361    33.744505 
 4920000    174.78579    98.059293   -9.1766752    33.507702    38.838562    34.889704 
 4921000    181.12883    92.917083   -5.8760273    32.235533    34.627083    31.930494 
 4922000    190.93938    92.621573   -7.4315001    33.044068    33.991872    33.017133 
 4923000    182.47089    104.97556   -5.9701054    38.773148    38.197173    33.975341 
 4924000    198.82414    112.19497   -6.4246452    39.208054    44.720742    34.690818 
 4925000    188.01864    117.48292    -4.364346    36.938536    46.488004    38.420724 
 4926000    193.06332    100.87855   -7.6697315    29.742201    45.660834    33.145248 
 4927000    182.93402    100.25933   -7.9360623    34.349205    41.562995     32.28319 
 4928000    187.73541    95.837055   -8.3783008    29.260736    40.625036    34.329583 
 4929000    171.75317     99.25006   -8.1685827    31.692038    46.380351    29.346255 
 4930000     172.6891    104.95424   -8.3230992    41.842915    39.613909    31.820519 
 4931000    197.70067    110.66599   -7.9272079    37.683418    46.568262    34.341522 
 4932000    177.07492    105.22619    -6.951487    29.960666     51.06772    31.149292 
 4933000     183.0516    99.756416   -5.4740065    33.424397    42.278825    29.527201 
 4934000    169.42309    100.92355   -7.7226871     32.78071    43.947693    31.917836 
 4935000     183.0578    98.185251   -7.1864398    37.723611    37.217142    30.430938 
 4936000    184.60917    98.611139    -8.473948    38.136043    40.347593    28.601451 
 4937000    181.11751    95.345462   -7.2470994    32.746454    38.767667     31.07844 
 4938000    171.77628    101.48194   -6.2536363    36.197205    40.727934    30.810435 
 4939000    183.03001    97.937182   -6.0907957    33.077906    39.615326    31.334745 
 4940000    181.27958    95.513054   -5.2208901    30.554282    37.323571    32.856091 
 4941000    144.70621    96.312929   -5.1045536     25.81811    41.789419    33.809954 
 4942000    171.14775    103.70069   -5.2586991    34.826801    42.988559    31.144029 
 4943000     196.3023    101.46485   -4.7624567    31.432879    39.144282    35.650144 
 4944000     177.6318    94.801946   -4.0302713    25.842257    42.168239     30.82172 
 4945000    180.98017    105.28462   -4.0500227    29.866306    42.915922    36.552414 
 4946000     176.3355    112.59238   -4.1566747    35.413299     45.69254    35.643215 
 4947000    180.74475    113.22778   -2.9897083    36.286809    45.478631    34.452047 
 4948000    163.98162    107.42294   -4.1823628    34.948633    42.576733    34.079933 
 4949000    172.20852    101.32384    -4.014192    33.738601    39.259771    32.339664 
 4950000    167.51297     96.57613   -6.6651652    32.706714    38.610227    31.924355 
 4951000    168.34247    99.617812   -6.5551369    34.052465    40.280208    31.840276 
 4952000    174.21049     93.78342   -6.3489747    28.358145    36.757555    35.016695 
 4953000    184.72545    101.68522   -4.0499174     31.66389    40.791508    33.279735 
 4954000    192.20471    101.56599   -6.0075887    32.937226    38.580518    36.055838 
 4955000    168.68768    99.991856   -8.5448898    33.802359    39.725605    35.008782 
 4956000    169.20291    95.136755   -8.3558006    33.298225    38.743438    31.450893 
 4957000    167.89962    95.063244   -6.1507476    32.874356    36.720463    31.619173 
 4958000    164.22845    94.642434   -5.7738659    30.557565    39.739608    30.119127 
 4959000    172.18084    98.819303   -4.3767255    36.896555    36.707415    29.592059 
 4960000     178.2143    94.883533   -6.8890785    30.083245    41.493605    30.195761 
 4961000    164.56888    105.43261   -8.5219139    37.016047    46.931306    30.007174 
 4962000    170.57098    94.378288   -6.7018752    32.317965    37.525288     31.23691 
 4963000     187.7212    93.222285   -5.6959523    30.226486    38.041816    30.649935 
 4964000    178.28073    100.01368   -5.4590505    30.312014    41.383277     33.77744 
 4965000    171.23682    99.257171   -7.2434714    33.619965    39.623862    33.256815 
 4966000    169.45205    101.54351   -5.0082951    28.210444    43.240747    35.100609 
 4967000     169.4951     91.48883   -6.7297656    27.114984    39.597465    31.506147 
 4968000      176.677    90.606008   -7.3219507    26.904321    36.703636    34.320002 
 4969000    175.10428    99.257515   -7.8268045    31.960417    43.469932     31.65397 
 4970000    182.28617    103.71314   -7.8877661    39.808984    41.652677    30.139242 
 4971000     176.5953    91.552684   -9.3759262    28.506601    41.984435    30.437574 
 4972000    167.70402    98.511566   -10.380155    34.141197     46.73168    28.018844 
 4973000    167.62825    93.800317   -8.5790062    35.175227    38.023807    29.180289 
 4974000    166.16505    98.219118   -4.3610438    37.136408    37.307385    28.136368 
 4975000    187.63292    98.615986   -5.5204664    32.046086    42.443391    29.646976 
 4976000    178.00231    97.850759   -5.6210783    35.731063    39.348391    28.392383 
 4977000    163.92235     100.4057   -5.4757645    39.364784    36.483106    30.033572 
 4978000    184.30471    101.75686   -5.9028487    36.762176    40.879887    30.017651 
 4979000    186.30022    86.429227   -6.5618126    31.642936    32.927486    28.420618 
 4980000    168.54636    110.71326   -5.8175733    40.039087    44.270628    32.221116 
 4981000    177.74504    117.62688   -5.1281711    41.412232    45.516918    35.825903 
 4982000    194.74584     107.5119   -5.4550045    29.643501    44.457106    38.866301 
 4983000    195.89069    103.41931   -4.5767282    27.192725    41.286059    39.517257 
 4984000    201.04554    103.00568   -4.6193577    29.747542    40.340493    37.537008 
 4985000     176.6441    110.26375   -6.1811983    36.337593     44.64029    35.467069 
 4986000    194.33583     104.5086   -5.2190886     31.02924    44.326862    34.371585 
 4987000    181.83351    101.75245   -5.4130099    31.610371    40.460649    35.094441 
 4988000    160.31305    109.66945   -5.7013981     33.12044     46.44947    35.800935 
 4989000    162.10928     99.60023   -5.6367228    27.327274    42.069601    35.840079 
 4990000    162.49798    96.111023   -4.6389293    24.465495    41.982979    34.301478 
 4991000      152.388    99.464621   -6.2874551    32.802839    39.824422    33.124815 
 4992000    163.43316    85.392066   -7.9982462    30.525324    30.449561    32.415427 
 4993000    158.66616    96.151509   -6.9457316    33.625849    36.040159    33.431233 
 4994000    181.09685    101.58507   -6.3050784    29.565859    44.883307    33.440987 
 4995000     176.4101    102.37952   -5.7414428    33.975407    40.524146    33.621414 
 4996000    163.92359    106.17865   -5.0194398    36.077975    39.253551    35.866565 
 4997000    184.28146    103.00711   -4.5270787    32.038938     43.27789    32.217364 
 4998000    188.83126    100.11544   -6.9347854    37.282285    35.488262    34.279673 
 4999000    186.64054    98.767666   -4.0368236    28.161632     38.56394    36.078918 
 5000000    175.46472     107.5974    -4.300629    30.356764    44.651927    36.889336 
Loop time of 479.918 on 4 procs for 5000000 steps with 185 atoms

Performance: 450.077 ns/day, 0.053 hours/ns, 10418.446 timesteps/s
99.5% CPU use with 4 MPI tasks x no OpenMP threads

MPI task timing breakdown:
Section |  min time  |  avg time  |  max time  |%varavg| %total
---------------------------------------------------------------
Pair    | 113.52     | 161.8      | 204.1      | 274.7 | 33.71
Bond    | 59.262     | 85.211     | 107.75     | 202.1 | 17.76
Neigh   | 3.9141     | 3.9381     | 3.9566     |   0.8 |  0.82
Comm    | 125.38     | 191.09     | 268.54     | 392.6 | 39.82
Output  | 0.28994    | 0.41479    | 0.77351    |  32.2 |  0.09
Modify  | 28.295     | 31.107     | 34.725     |  44.2 |  6.48
Other   |            | 6.358      |            |       |  1.32

Nlocal:    46.25 ave 95 max 0 min
Histogram: 2 0 0 0 0 0 0 0 0 2
Nghost:    109.75 ave 156 max 55 min
Histogram: 1 0 1 0 0 0 0 0 0 2
Neighs:    1734.25 ave 3751 max 0 min
Histogram: 2 0 0 0 0 0 0 0 1 1

Total # of neighbors = 6937
Ave neighs/atom = 37.4973
Ave special neighs/atom = 8.04324
Neighbor list builds = 34150
Dangerous builds = 0
clear

next t
next a
jump SELF loopstart
# set logfile
log		log.run.$t
log		log.run.180
