
# Box and units  (use LJ units and periodic boundaries)
units		real
# so:
#    mass = grams/mole		# same in gromacs
#    distance = Angstroms	# nm in gromacs
#    time = femtoseconds	# ps in gromacs
#    energy = Kcal/mole		# kcal/mol in gromacs
#    velocity = Angstroms/femtosecond	# ...
#    force = Kcal/mole-Angstrom	# ...
#    temperature = Kelvin	# same in gromacs
#    pressure = atmospheres	# same in gromacs
#    dynamic viscosity = Poise	# no idea
dimension	3
atom_style	molecular
boundary	p p p


# Pair interactions require lists of neighbours to be calculated
neighbor	5.0 nsq
neigh_modify	every 1 delay 10 check yes

# define interactions
pair_style	lj12106/cut  30.0 # same as in md_sample.mdp from the smog-model web-tool
pair_modify	shift yes
bond_style	harmonic
angle_style	harmonic
dihedral_style	charmm
special_bonds	lj 0.0 0.0 0.0 angle yes dihedral yes # 3 exclusions

# READ "start" data file
read_data ../../protein/ranaspumin/4-coarsegrained/data.input
  orthogonal box = (-200 -200 -200) to (200 200 200)
  1 by 2 by 2 MPI processor grid
  reading atoms ...
  185 atoms
  scanning bonds ...
  2 = max bonds/atom
  scanning angles ...
  3 = max angles/atom
  scanning dihedrals ...
  8 = max dihedrals/atom
  reading bonds ...
  185 bonds
  reading angles ...
  270 angles
  reading dihedrals ...
  578 dihedrals
  3 = max # of 1-2 neighbors
  5 = max # of 1-3 neighbors
  10 = max # of 1-4 neighbors
  544 = # of 1-3 neighbors before angle trim
  540 = # of 1-3 neighbors after angle trim
  991 = # of 1-4 neighbors before dihedral trim
  578 = # of 1-4 neighbors after dihedral trim
  11 = max # of special neighbors

# define coeffs
include ../../protein/ranaspumin/4-coarsegrained/settings.param
pair_coeff 1 1 0.000000e+00 0.000000e+00 4.009755e+04 # CA1-CA1 type=non-native eps=0.002390 sigma=4.000000
pair_coeff 1 2 0.000000e+00 0.000000e+00 4.009755e+04 # CA1-SC1 type=non-native eps=0.002390 sigma=4.000000
pair_coeff 1 3 0.000000e+00 0.000000e+00 4.009755e+04 # CA1-CA2 type=non-native eps=0.002390 sigma=4.000000
pair_coeff 1 4 0.000000e+00 0.000000e+00 4.009755e+04 # CA1-SC2 type=non-native eps=0.002390 sigma=4.000000
pair_coeff 1 5 0.000000e+00 0.000000e+00 4.009755e+04 # CA1-CA3 type=non-native eps=0.002390 sigma=4.000000
pair_coeff 1 6 0.000000e+00 0.000000e+00 4.009755e+04 # CA1-SC3 type=non-native eps=0.002390 sigma=4.000000
pair_coeff 1 7 0.000000e+00 0.000000e+00 4.009755e+04 # CA1-CA4 type=non-native eps=0.002390 sigma=4.000000
pair_coeff 1 8 0.000000e+00 0.000000e+00 4.009755e+04 # CA1-SC4 type=non-native eps=0.002390 sigma=4.000000
pair_coeff 1 9 0.000000e+00 0.000000e+00 4.009755e+04 # CA1-CA5 type=non-native eps=0.002390 sigma=4.000000
pair_coeff 1 10 0.000000e+00 0.000000e+00 4.009755e+04 # CA1-CA6 type=non-native eps=0.002390 sigma=4.000000
pair_coeff 1 11 0.000000e+00 0.000000e+00 4.009755e+04 # CA1-SC6 type=non-native eps=0.002390 sigma=4.000000
pair_coeff 1 12 0.000000e+00 0.000000e+00 4.009755e+04 # CA1-CA7 type=non-native eps=0.002390 sigma=4.000000
pair_coeff 1 13 0.000000e+00 0.000000e+00 4.009755e+04 # CA1-SC7 type=non-native eps=0.002390 sigma=4.000000
pair_coeff 1 14 0.000000e+00 0.000000e+00 4.009755e+04 # CA1-CA8 type=non-native eps=0.002390 sigma=4.000000
pair_coeff 1 15 0.000000e+00 0.000000e+00 4.009755e+04 # CA1-SC8 type=non-native eps=0.002390 sigma=4.000000
pair_coeff 1 16 0.000000e+00 0.000000e+00 4.009755e+04 # CA1-CA9 type=non-native eps=0.002390 sigma=4.000000
pair_coeff 1 17 0.000000e+00 0.000000e+00 6.317440e+04 # CA1-SC9 type=non-native eps=0.002390 sigma=4.154435
pair_coeff 1 18 0.000000e+00 0.000000e+00 4.009755e+04 # CA1-CA10 type=non-native eps=0.002390 sigma=4.000000
pair_coeff 1 19 0.000000e+00 0.000000e+00 4.009755e+04 # CA1-SC10 type=non-native eps=0.002390 sigma=4.000000
pair_coeff 1 20 0.000000e+00 0.000000e+00 4.009755e+04 # CA1-CA11 type=non-native eps=0.002390 sigma=4.000000
pair_coeff 1 21 0.000000e+00 0.000000e+00 6.317440e+04 # CA1-SC11 type=non-native eps=0.002390 sigma=4.154435
pair_coeff 1 22 0.000000e+00 0.000000e+00 4.009755e+04 # CA1-CA12 type=non-native eps=0.002390 sigma=4.000000
pair_coeff 1 23 0.000000e+00 0.000000e+00 4.009755e+04 # CA1-SC12 type=non-native eps=0.002390 sigma=4.000000
pair_coeff 1 24 0.000000e+00 0.000000e+00 4.009755e+04 # CA1-CA13 type=non-native eps=0.002390 sigma=4.000000
pair_coeff 1 25 0.000000e+00 0.000000e+00 6.317440e+04 # CA1-SC13 type=non-native eps=0.002390 sigma=4.154435
pair_coeff 1 26 0.000000e+00 0.000000e+00 4.009755e+04 # CA1-CA14 type=non-native eps=0.002390 sigma=4.000000
pair_coeff 1 27 0.000000e+00 0.000000e+00 4.009755e+04 # CA1-SC14 type=non-native eps=0.002390 sigma=4.000000
pair_coeff 1 28 0.000000e+00 0.000000e+00 4.009755e+04 # CA1-CA15 type=non-native eps=0.002390 sigma=4.000000
pair_coeff 1 29 0.000000e+00 0.000000e+00 2.286802e+04 # CA1-SC15 type=non-native eps=0.002390 sigma=3.817121
pair_coeff 1 30 0.000000e+00 0.000000e+00 4.009755e+04 # CA1-CA16 type=non-native eps=0.002390 sigma=4.000000
pair_coeff 1 31 0.000000e+00 0.000000e+00 2.286802e+04 # CA1-SC16 type=non-native eps=0.002390 sigma=3.817121
pair_coeff 1 32 0.000000e+00 0.000000e+00 4.009755e+04 # CA1-CA17 type=non-native eps=0.002390 sigma=4.000000
pair_coeff 1 33 0.000000e+00 0.000000e+00 4.009755e+04 # CA1-SC17 type=non-native eps=0.002390 sigma=4.000000
pair_coeff 1 34 0.000000e+00 0.000000e+00 4.009755e+04 # CA1-CA18 type=non-native eps=0.002390 sigma=4.000000
pair_coeff 1 35 0.000000e+00 0.000000e+00 4.009755e+04 # CA1-SC18 type=non-native eps=0.002390 sigma=4.000000
pair_coeff 1 36 0.000000e+00 0.000000e+00 4.009755e+04 # CA1-CA19 type=non-native eps=0.002390 sigma=4.000000
pair_coeff 1 37 0.000000e+00 0.000000e+00 4.009755e+04 # CA1-SC19 type=non-native eps=0.002390 sigma=4.000000
pair_coeff 1 38 0.000000e+00 0.000000e+00 4.009755e+04 # CA1-CA20 type=non-native eps=0.002390 sigma=4.000000
pair_coeff 1 39 0.000000e+00 0.000000e+00 4.009755e+04 # CA1-SC20 type=non-native eps=0.002390 sigma=4.000000
pair_coeff 1 40 0.000000e+00 0.000000e+00 4.009755e+04 # CA1-CA21 type=non-native eps=0.002390 sigma=4.000000
pair_coeff 1 41 0.000000e+00 0.000000e+00 1.293687e+05 # CA1-SC21 type=non-native eps=0.002390 sigma=4.410142
pair_coeff 1 42 0.000000e+00 0.000000e+00 4.009755e+04 # CA1-CA22 type=non-native eps=0.002390 sigma=4.000000
pair_coeff 1 43 0.000000e+00 0.000000e+00 4.009755e+04 # CA1-CA23 type=non-native eps=0.002390 sigma=4.000000
pair_coeff 1 44 0.000000e+00 0.000000e+00 6.317440e+04 # CA1-SC23 type=non-native eps=0.002390 sigma=4.154435
pair_coeff 1 45 0.000000e+00 0.000000e+00 4.009755e+04 # CA1-CA24 type=non-native eps=0.002390 sigma=4.000000
pair_coeff 1 46 0.000000e+00 0.000000e+00 6.317440e+04 # CA1-SC24 type=non-native eps=0.002390 sigma=4.154435
pair_coeff 1 47 0.000000e+00 0.000000e+00 4.009755e+04 # CA1-CA25 type=non-native eps=0.002390 sigma=4.000000
pair_coeff 1 48 0.000000e+00 0.000000e+00 4.009755e+04 # CA1-SC25 type=non-native eps=0.002390 sigma=4.000000
pair_coeff 1 49 0.000000e+00 0.000000e+00 4.009755e+04 # CA1-CA26 type=non-native eps=0.002390 sigma=4.000000
pair_coeff 1 50 0.000000e+00 0.000000e+00 4.009755e+04 # CA1-SC26 type=non-native eps=0.002390 sigma=4.000000
pair_coeff 1 51 0.000000e+00 0.000000e+00 4.009755e+04 # CA1-CA27 type=non-native eps=0.002390 sigma=4.000000
pair_coeff 1 52 0.000000e+00 0.000000e+00 4.009755e+04 # CA1-SC27 type=non-native eps=0.002390 sigma=4.000000
pair_coeff 1 53 0.000000e+00 0.000000e+00 4.009755e+04 # CA1-CA28 type=non-native eps=0.002390 sigma=4.000000
pair_coeff 1 54 0.000000e+00 0.000000e+00 6.317440e+04 # CA1-SC28 type=non-native eps=0.002390 sigma=4.154435
pair_coeff 1 55 0.000000e+00 0.000000e+00 4.009755e+04 # CA1-CA29 type=non-native eps=0.002390 sigma=4.000000
pair_coeff 1 56 -1.088004e+05 0.000000e+00 1.238235e+10 # CA1-SC29 type=native eps=0.239000 sigma=7.813886
pair_coeff 1 57 0.000000e+00 0.000000e+00 4.009755e+04 # CA1-CA30 type=non-native eps=0.002390 sigma=4.000000
pair_coeff 1 58 0.000000e+00 0.000000e+00 6.317440e+04 # CA1-SC30 type=non-native eps=0.002390 sigma=4.154435
pair_coeff 1 59 0.000000e+00 0.000000e+00 4.009755e+04 # CA1-CA31 type=non-native eps=0.002390 sigma=4.000000
pair_coeff 1 60 0.000000e+00 0.000000e+00 4.009755e+04 # CA1-SC31 type=non-native eps=0.002390 sigma=4.000000
pair_coeff 1 61 0.000000e+00 0.000000e+00 4.009755e+04 # CA1-CA32 type=non-native eps=0.002390 sigma=4.000000
pair_coeff 1 62 0.000000e+00 0.000000e+00 4.009755e+04 # CA1-SC32 type=non-native eps=0.002390 sigma=4.000000
pair_coeff 1 63 0.000000e+00 0.000000e+00 4.009755e+04 # CA1-CA33 type=non-native eps=0.002390 sigma=4.000000
pair_coeff 1 64 0.000000e+00 0.000000e+00 4.009755e+04 # CA1-SC33 type=non-native eps=0.002390 sigma=4.000000
pair_coeff 1 65 0.000000e+00 0.000000e+00 4.009755e+04 # CA1-CA34 type=non-native eps=0.002390 sigma=4.000000
pair_coeff 1 66 0.000000e+00 0.000000e+00 6.317440e+04 # CA1-SC34 type=non-native eps=0.002390 sigma=4.154435
pair_coeff 1 67 0.000000e+00 0.000000e+00 4.009755e+04 # CA1-CA35 type=non-native eps=0.002390 sigma=4.000000
pair_coeff 1 68 0.000000e+00 0.000000e+00 4.009755e+04 # CA1-SC35 type=non-native eps=0.002390 sigma=4.000000
pair_coeff 1 69 0.000000e+00 0.000000e+00 4.009755e+04 # CA1-CA36 type=non-native eps=0.002390 sigma=4.000000
pair_coeff 1 70 0.000000e+00 0.000000e+00 6.317440e+04 # CA1-SC36 type=non-native eps=0.002390 sigma=4.154435
pair_coeff 1 71 0.000000e+00 0.000000e+00 4.009755e+04 # CA1-CA37 type=non-native eps=0.002390 sigma=4.000000
pair_coeff 1 72 0.000000e+00 0.000000e+00 1.737309e+05 # CA1-SC37 type=non-native eps=0.002390 sigma=4.519842
pair_coeff 1 73 0.000000e+00 0.000000e+00 4.009755e+04 # CA1-CA38 type=non-native eps=0.002390 sigma=4.000000
pair_coeff 1 74 0.000000e+00 0.000000e+00 4.009755e+04 # CA1-CA39 type=non-native eps=0.002390 sigma=4.000000
pair_coeff 1 75 0.000000e+00 0.000000e+00 2.286802e+04 # CA1-SC39 type=non-native eps=0.002390 sigma=3.817121
pair_coeff 1 76 0.000000e+00 0.000000e+00 4.009755e+04 # CA1-CA40 type=non-native eps=0.002390 sigma=4.000000
pair_coeff 1 77 0.000000e+00 0.000000e+00 4.009755e+04 # CA1-SC40 type=non-native eps=0.002390 sigma=4.000000
pair_coeff 1 78 0.000000e+00 0.000000e+00 4.009755e+04 # CA1-CA41 type=non-native eps=0.002390 sigma=4.000000
pair_coeff 1 79 0.000000e+00 0.000000e+00 2.286802e+04 # CA1-SC41 type=non-native eps=0.002390 sigma=3.817121
pair_coeff 1 80 0.000000e+00 0.000000e+00 4.009755e+04 # CA1-CA42 type=non-native eps=0.002390 sigma=4.000000
pair_coeff 1 81 0.000000e+00 0.000000e+00 6.317440e+04 # CA1-SC42 type=non-native eps=0.002390 sigma=4.154435
pair_coeff 1 82 0.000000e+00 0.000000e+00 4.009755e+04 # CA1-CA43 type=non-native eps=0.002390 sigma=4.000000
pair_coeff 1 83 0.000000e+00 0.000000e+00 4.009755e+04 # CA1-SC43 type=non-native eps=0.002390 sigma=4.000000
pair_coeff 1 84 0.000000e+00 0.000000e+00 4.009755e+04 # CA1-CA44 type=non-native eps=0.002390 sigma=4.000000
pair_coeff 1 85 0.000000e+00 0.000000e+00 4.009755e+04 # CA1-SC44 type=non-native eps=0.002390 sigma=4.000000
pair_coeff 1 86 0.000000e+00 0.000000e+00 4.009755e+04 # CA1-CA45 type=non-native eps=0.002390 sigma=4.000000
pair_coeff 1 87 0.000000e+00 0.000000e+00 6.317440e+04 # CA1-SC45 type=non-native eps=0.002390 sigma=4.154435
pair_coeff 1 88 0.000000e+00 0.000000e+00 4.009755e+04 # CA1-CA46 type=non-native eps=0.002390 sigma=4.000000
pair_coeff 1 89 0.000000e+00 0.000000e+00 4.009755e+04 # CA1-SC46 type=non-native eps=0.002390 sigma=4.000000
pair_coeff 1 90 0.000000e+00 0.000000e+00 4.009755e+04 # CA1-CA47 type=non-native eps=0.002390 sigma=4.000000
pair_coeff 1 91 0.000000e+00 0.000000e+00 4.009755e+04 # CA1-SC47 type=non-native eps=0.002390 sigma=4.000000
pair_coeff 1 92 0.000000e+00 0.000000e+00 4.009755e+04 # CA1-CA48 type=non-native eps=0.002390 sigma=4.000000
pair_coeff 1 93 0.000000e+00 0.000000e+00 6.317440e+04 # CA1-SC48 type=non-native eps=0.002390 sigma=4.154435
pair_coeff 1 94 0.000000e+00 0.000000e+00 4.009755e+04 # CA1-CA49 type=non-native eps=0.002390 sigma=4.000000
pair_coeff 1 95 0.000000e+00 0.000000e+00 2.286802e+04 # CA1-SC49 type=non-native eps=0.002390 sigma=3.817121
pair_coeff 1 96 0.000000e+00 0.000000e+00 4.009755e+04 # CA1-CA50 type=non-native eps=0.002390 sigma=4.000000
pair_coeff 1 97 0.000000e+00 0.000000e+00 1.085818e+04 # CA1-SC50 type=non-native eps=0.002390 sigma=3.587401
pair_coeff 1 98 0.000000e+00 0.000000e+00 4.009755e+04 # CA1-CA51 type=non-native eps=0.002390 sigma=4.000000
pair_coeff 1 99 0.000000e+00 0.000000e+00 6.317440e+04 # CA1-SC51 type=non-native eps=0.002390 sigma=4.154435
pair_coeff 1 100 0.000000e+00 0.000000e+00 4.009755e+04 # CA1-CA52 type=non-native eps=0.002390 sigma=4.000000
pair_coeff 1 101 0.000000e+00 0.000000e+00 4.009755e+04 # CA1-SC52 type=non-native eps=0.002390 sigma=4.000000
pair_coeff 1 102 0.000000e+00 0.000000e+00 4.009755e+04 # CA1-CA53 type=non-native eps=0.002390 sigma=4.000000
pair_coeff 1 103 0.000000e+00 0.000000e+00 6.317440e+04 # CA1-SC53 type=non-native eps=0.002390 sigma=4.154435
pair_coeff 1 104 0.000000e+00 0.000000e+00 4.009755e+04 # CA1-CA54 type=non-native eps=0.002390 sigma=4.000000
pair_coeff 1 105 0.000000e+00 0.000000e+00 1.293687e+05 # CA1-SC54 type=non-native eps=0.002390 sigma=4.410142
pair_coeff 1 106 0.000000e+00 0.000000e+00 4.009755e+04 # CA1-CA55 type=non-native eps=0.002390 sigma=4.000000
pair_coeff 1 107 0.000000e+00 0.000000e+00 1.293687e+05 # CA1-SC55 type=non-native eps=0.002390 sigma=4.410142
pair_coeff 1 108 0.000000e+00 0.000000e+00 4.009755e+04 # CA1-CA56 type=non-native eps=0.002390 sigma=4.000000
pair_coeff 1 109 0.000000e+00 0.000000e+00 1.737309e+05 # CA1-SC56 type=non-native eps=0.002390 sigma=4.519842
pair_coeff 1 110 0.000000e+00 0.000000e+00 4.009755e+04 # CA1-CA57 type=non-native eps=0.002390 sigma=4.000000
pair_coeff 1 111 0.000000e+00 0.000000e+00 1.737309e+05 # CA1-SC57 type=non-native eps=0.002390 sigma=4.519842
pair_coeff 1 112 0.000000e+00 0.000000e+00 4.009755e+04 # CA1-CA58 type=non-native eps=0.002390 sigma=4.000000
pair_coeff 1 113 0.000000e+00 0.000000e+00 2.286802e+04 # CA1-SC58 type=non-native eps=0.002390 sigma=3.817121
pair_coeff 1 114 0.000000e+00 0.000000e+00 4.009755e+04 # CA1-CA59 type=non-native eps=0.002390 sigma=4.000000
pair_coeff 1 115 0.000000e+00 0.000000e+00 1.085818e+04 # CA1-SC59 type=non-native eps=0.002390 sigma=3.587401
pair_coeff 1 116 0.000000e+00 0.000000e+00 4.009755e+04 # CA1-CA60 type=non-native eps=0.002390 sigma=4.000000
pair_coeff 1 117 0.000000e+00 0.000000e+00 2.286802e+04 # CA1-SC60 type=non-native eps=0.002390 sigma=3.817121
pair_coeff 1 118 0.000000e+00 0.000000e+00 4.009755e+04 # CA1-CA61 type=non-native eps=0.002390 sigma=4.000000
pair_coeff 1 119 0.000000e+00 0.000000e+00 4.009755e+04 # CA1-SC61 type=non-native eps=0.002390 sigma=4.000000
pair_coeff 1 120 0.000000e+00 0.000000e+00 4.009755e+04 # CA1-CA62 type=non-native eps=0.002390 sigma=4.000000
pair_coeff 1 121 0.000000e+00 0.000000e+00 3.442571e+03 # CA1-SC62 type=non-native eps=0.002390 sigma=3.259921
pair_coeff 1 122 0.000000e+00 0.000000e+00 4.009755e+04 # CA1-CA63 type=non-native eps=0.002390 sigma=4.000000
pair_coeff 1 123 0.000000e+00 0.000000e+00 4.009755e+04 # CA1-CA64 type=non-native eps=0.002390 sigma=4.000000
pair_coeff 1 124 0.000000e+00 0.000000e+00 4.009755e+04 # CA1-SC64 type=non-native eps=0.002390 sigma=4.000000
pair_coeff 1 125 0.000000e+00 0.000000e+00 4.009755e+04 # CA1-CA65 type=non-native eps=0.002390 sigma=4.000000
pair_coeff 1 126 0.000000e+00 0.000000e+00 4.009755e+04 # CA1-CA66 type=non-native eps=0.002390 sigma=4.000000
pair_coeff 1 127 0.000000e+00 0.000000e+00 6.317440e+04 # CA1-SC66 type=non-native eps=0.002390 sigma=4.154435
pair_coeff 1 128 0.000000e+00 0.000000e+00 4.009755e+04 # CA1-CA67 type=non-native eps=0.002390 sigma=4.000000
pair_coeff 1 129 0.000000e+00 0.000000e+00 6.317440e+04 # CA1-SC67 type=non-native eps=0.002390 sigma=4.154435
pair_coeff 1 130 0.000000e+00 0.000000e+00 4.009755e+04 # CA1-CA68 type=non-native eps=0.002390 sigma=4.000000
pair_coeff 1 131 0.000000e+00 0.000000e+00 1.085818e+04 # CA1-SC68 type=non-native eps=0.002390 sigma=3.587401
pair_coeff 1 132 0.000000e+00 0.000000e+00 4.009755e+04 # CA1-CA69 type=non-native eps=0.002390 sigma=4.000000
pair_coeff 1 133 0.000000e+00 0.000000e+00 6.317440e+04 # CA1-SC69 type=non-native eps=0.002390 sigma=4.154435
pair_coeff 1 134 0.000000e+00 0.000000e+00 4.009755e+04 # CA1-CA70 type=non-native eps=0.002390 sigma=4.000000
pair_coeff 1 135 0.000000e+00 0.000000e+00 1.293687e+05 # CA1-SC70 type=non-native eps=0.002390 sigma=4.410142
pair_coeff 1 136 0.000000e+00 0.000000e+00 4.009755e+04 # CA1-CA71 type=non-native eps=0.002390 sigma=4.000000
pair_coeff 1 137 0.000000e+00 0.000000e+00 6.317440e+04 # CA1-SC71 type=non-native eps=0.002390 sigma=4.154435
pair_coeff 1 138 0.000000e+00 0.000000e+00 4.009755e+04 # CA1-CA72 type=non-native eps=0.002390 sigma=4.000000
pair_coeff 1 139 0.000000e+00 0.000000e+00 4.009755e+04 # CA1-SC72 type=non-native eps=0.002390 sigma=4.000000
pair_coeff 1 140 0.000000e+00 0.000000e+00 4.009755e+04 # CA1-CA73 type=non-native eps=0.002390 sigma=4.000000
pair_coeff 1 141 0.000000e+00 0.000000e+00 1.293687e+05 # CA1-SC73 type=non-native eps=0.002390 sigma=4.410142
pair_coeff 1 142 0.000000e+00 0.000000e+00 4.009755e+04 # CA1-CA74 type=non-native eps=0.002390 sigma=4.000000
pair_coeff 1 143 0.000000e+00 0.000000e+00 6.317440e+04 # CA1-SC74 type=non-native eps=0.002390 sigma=4.154435
pair_coeff 1 144 0.000000e+00 0.000000e+00 4.009755e+04 # CA1-CA75 type=non-native eps=0.002390 sigma=4.000000
pair_coeff 1 145 -8.182292e+02 0.000000e+00 1.167188e+06 # CA1-SC75 type=native eps=0.143400 sigma=3.766020
pair_coeff 1 146 0.000000e+00 0.000000e+00 4.009755e+04 # CA1-CA76 type=non-native eps=0.002390 sigma=4.000000
pair_coeff 1 147 0.000000e+00 0.000000e+00 2.286802e+04 # CA1-SC76 type=non-native eps=0.002390 sigma=3.817121
pair_coeff 1 148 0.000000e+00 0.000000e+00 4.009755e+04 # CA1-CA77 type=non-native eps=0.002390 sigma=4.000000
pair_coeff 1 149 0.000000e+00 0.000000e+00 4.009755e+04 # CA1-SC77 type=non-native eps=0.002390 sigma=4.000000
pair_coeff 1 150 0.000000e+00 0.000000e+00 4.009755e+04 # CA1-CA78 type=non-native eps=0.002390 sigma=4.000000
pair_coeff 1 151 0.000000e+00 0.000000e+00 2.286802e+04 # CA1-SC78 type=non-native eps=0.002390 sigma=3.817121
pair_coeff 1 152 -9.454089e+03 0.000000e+00 2.804805e+08 # CA1-CA79 type=native eps=0.079667 sigma=6.245284
pair_coeff 1 153 0.000000e+00 0.000000e+00 2.286802e+04 # CA1-SC79 type=non-native eps=0.002390 sigma=3.817121
pair_coeff 1 154 0.000000e+00 0.000000e+00 4.009755e+04 # CA1-CA80 type=non-native eps=0.002390 sigma=4.000000
pair_coeff 1 155 0.000000e+00 0.000000e+00 6.317440e+04 # CA1-SC80 type=non-native eps=0.002390 sigma=4.154435
pair_coeff 1 156 0.000000e+00 0.000000e+00 4.009755e+04 # CA1-CA81 type=non-native eps=0.002390 sigma=4.000000
pair_coeff 1 157 0.000000e+00 0.000000e+00 4.009755e+04 # CA1-SC81 type=non-native eps=0.002390 sigma=4.000000
pair_coeff 1 158 0.000000e+00 0.000000e+00 4.009755e+04 # CA1-CA82 type=non-native eps=0.002390 sigma=4.000000
pair_coeff 1 159 0.000000e+00 0.000000e+00 2.286802e+04 # CA1-SC82 type=non-native eps=0.002390 sigma=3.817121
pair_coeff 1 160 0.000000e+00 0.000000e+00 4.009755e+04 # CA1-CA83 type=non-native eps=0.002390 sigma=4.000000
pair_coeff 1 161 0.000000e+00 0.000000e+00 4.009755e+04 # CA1-CA84 type=non-native eps=0.002390 sigma=4.000000
pair_coeff 1 162 0.000000e+00 0.000000e+00 1.293687e+05 # CA1-SC84 type=non-native eps=0.002390 sigma=4.410142
pair_coeff 1 163 0.000000e+00 0.000000e+00 4.009755e+04 # CA1-CA85 type=non-native eps=0.002390 sigma=4.000000
pair_coeff 1 164 0.000000e+00 0.000000e+00 6.317440e+04 # CA1-SC85 type=non-native eps=0.002390 sigma=4.154435
pair_coeff 1 165 0.000000e+00 0.000000e+00 4.009755e+04 # CA1-CA86 type=non-native eps=0.002390 sigma=4.000000
pair_coeff 1 166 0.000000e+00 0.000000e+00 1.085818e+04 # CA1-SC86 type=non-native eps=0.002390 sigma=3.587401
pair_coeff 1 167 0.000000e+00 0.000000e+00 4.009755e+04 # CA1-CA87 type=non-native eps=0.002390 sigma=4.000000
pair_coeff 1 168 0.000000e+00 0.000000e+00 1.293687e+05 # CA1-SC87 type=non-native eps=0.002390 sigma=4.410142
pair_coeff 1 169 0.000000e+00 0.000000e+00 4.009755e+04 # CA1-CA88 type=non-native eps=0.002390 sigma=4.000000
pair_coeff 1 170 0.000000e+00 0.000000e+00 6.317440e+04 # CA1-SC88 type=non-native eps=0.002390 sigma=4.154435
pair_coeff 1 171 0.000000e+00 0.000000e+00 4.009755e+04 # CA1-CA89 type=non-native eps=0.002390 sigma=4.000000
pair_coeff 1 172 0.000000e+00 0.000000e+00 4.009755e+04 # CA1-SC89 type=non-native eps=0.002390 sigma=4.000000
pair_coeff 1 173 0.000000e+00 0.000000e+00 4.009755e+04 # CA1-CA90 type=non-native eps=0.002390 sigma=4.000000
pair_coeff 1 174 0.000000e+00 0.000000e+00 4.009755e+04 # CA1-SC90 type=non-native eps=0.002390 sigma=4.000000
pair_coeff 1 175 0.000000e+00 0.000000e+00 4.009755e+04 # CA1-CA91 type=non-native eps=0.002390 sigma=4.000000
pair_coeff 1 176 0.000000e+00 0.000000e+00 4.009755e+04 # CA1-SC91 type=non-native eps=0.002390 sigma=4.000000
pair_coeff 1 177 0.000000e+00 0.000000e+00 4.009755e+04 # CA1-CA92 type=non-native eps=0.002390 sigma=4.000000
pair_coeff 1 178 0.000000e+00 0.000000e+00 4.009755e+04 # CA1-SC92 type=non-native eps=0.002390 sigma=4.000000
pair_coeff 1 179 0.000000e+00 0.000000e+00 4.009755e+04 # CA1-CA93 type=non-native eps=0.002390 sigma=4.000000
pair_coeff 1 180 0.000000e+00 0.000000e+00 4.009755e+04 # CA1-SC93 type=non-native eps=0.002390 sigma=4.000000
pair_coeff 1 181 0.000000e+00 0.000000e+00 4.009755e+04 # CA1-CA94 type=non-native eps=0.002390 sigma=4.000000
pair_coeff 1 182 0.000000e+00 0.000000e+00 4.009755e+04 # CA1-SC94 type=non-native eps=0.002390 sigma=4.000000
pair_coeff 1 183 0.000000e+00 0.000000e+00 4.009755e+04 # CA1-CA95 type=non-native eps=0.002390 sigma=4.000000
pair_coeff 1 184 0.000000e+00 0.000000e+00 4.009755e+04 # CA1-CA96 type=non-native eps=0.002390 sigma=4.000000
pair_coeff 1 185 0.000000e+00 0.000000e+00 2.264320e+05 # CA1-SC96 type=non-native eps=0.002390 sigma=4.620741
pair_coeff 2 2 0.000000e+00 0.000000e+00 4.009755e+04 # SC1-SC1 type=non-native eps=0.002390 sigma=4.000000
pair_coeff 2 3 0.000000e+00 0.000000e+00 4.009755e+04 # SC1-CA2 type=non-native eps=0.002390 sigma=4.000000
pair_coeff 2 4 0.000000e+00 0.000000e+00 4.009755e+04 # SC1-SC2 type=non-native eps=0.002390 sigma=4.000000
pair_coeff 2 5 0.000000e+00 0.000000e+00 4.009755e+04 # SC1-CA3 type=non-native eps=0.002390 sigma=4.000000
pair_coeff 2 6 0.000000e+00 0.000000e+00 4.009755e+04 # SC1-SC3 type=non-native eps=0.002390 sigma=4.000000
pair_coeff 2 7 0.000000e+00 0.000000e+00 4.009755e+04 # SC1-CA4 type=non-native eps=0.002390 sigma=4.000000
pair_coeff 2 8 0.000000e+00 0.000000e+00 4.009755e+04 # SC1-SC4 type=non-native eps=0.002390 sigma=4.000000
pair_coeff 2 9 0.000000e+00 0.000000e+00 4.009755e+04 # SC1-CA5 type=non-native eps=0.002390 sigma=4.000000
pair_coeff 2 10 0.000000e+00 0.000000e+00 4.009755e+04 # SC1-CA6 type=non-native eps=0.002390 sigma=4.000000
pair_coeff 2 11 0.000000e+00 0.000000e+00 4.009755e+04 # SC1-SC6 type=non-native eps=0.002390 sigma=4.000000
pair_coeff 2 12 0.000000e+00 0.000000e+00 4.009755e+04 # SC1-CA7 type=non-native eps=0.002390 sigma=4.000000
pair_coeff 2 13 0.000000e+00 0.000000e+00 4.009755e+04 # SC1-SC7 type=non-native eps=0.002390 sigma=4.000000
pair_coeff 2 14 0.000000e+00 0.000000e+00 4.009755e+04 # SC1-CA8 type=non-native eps=0.002390 sigma=4.000000
pair_coeff 2 15 0.000000e+00 0.000000e+00 4.009755e+04 # SC1-SC8 type=non-native eps=0.002390 sigma=4.000000
pair_coeff 2 16 0.000000e+00 0.000000e+00 4.009755e+04 # SC1-CA9 type=non-native eps=0.002390 sigma=4.000000
pair_coeff 2 17 0.000000e+00 0.000000e+00 6.317440e+04 # SC1-SC9 type=non-native eps=0.002390 sigma=4.154435
pair_coeff 2 18 0.000000e+00 0.000000e+00 4.009755e+04 # SC1-CA10 type=non-native eps=0.002390 sigma=4.000000
pair_coeff 2 19 0.000000e+00 0.000000e+00 4.009755e+04 # SC1-SC10 type=non-native eps=0.002390 sigma=4.000000
pair_coeff 2 20 0.000000e+00 0.000000e+00 4.009755e+04 # SC1-CA11 type=non-native eps=0.002390 sigma=4.000000
pair_coeff 2 21 0.000000e+00 0.000000e+00 6.317440e+04 # SC1-SC11 type=non-native eps=0.002390 sigma=4.154435
pair_coeff 2 22 0.000000e+00 0.000000e+00 4.009755e+04 # SC1-CA12 type=non-native eps=0.002390 sigma=4.000000
pair_coeff 2 23 0.000000e+00 0.000000e+00 4.009755e+04 # SC1-SC12 type=non-native eps=0.002390 sigma=4.000000
pair_coeff 2 24 0.000000e+00 0.000000e+00 4.009755e+04 # SC1-CA13 type=non-native eps=0.002390 sigma=4.000000
pair_coeff 2 25 0.000000e+00 0.000000e+00 6.317440e+04 # SC1-SC13 type=non-native eps=0.002390 sigma=4.154435
pair_coeff 2 26 0.000000e+00 0.000000e+00 4.009755e+04 # SC1-CA14 type=non-native eps=0.002390 sigma=4.000000
pair_coeff 2 27 0.000000e+00 0.000000e+00 4.009755e+04 # SC1-SC14 type=non-native eps=0.002390 sigma=4.000000
pair_coeff 2 28 0.000000e+00 0.000000e+00 4.009755e+04 # SC1-CA15 type=non-native eps=0.002390 sigma=4.000000
pair_coeff 2 29 0.000000e+00 0.000000e+00 2.286802e+04 # SC1-SC15 type=non-native eps=0.002390 sigma=3.817121
pair_coeff 2 30 0.000000e+00 0.000000e+00 4.009755e+04 # SC1-CA16 type=non-native eps=0.002390 sigma=4.000000
pair_coeff 2 31 0.000000e+00 0.000000e+00 2.286802e+04 # SC1-SC16 type=non-native eps=0.002390 sigma=3.817121
pair_coeff 2 32 0.000000e+00 0.000000e+00 4.009755e+04 # SC1-CA17 type=non-native eps=0.002390 sigma=4.000000
pair_coeff 2 33 0.000000e+00 0.000000e+00 4.009755e+04 # SC1-SC17 type=non-native eps=0.002390 sigma=4.000000
pair_coeff 2 34 0.000000e+00 0.000000e+00 4.009755e+04 # SC1-CA18 type=non-native eps=0.002390 sigma=4.000000
pair_coeff 2 35 0.000000e+00 0.000000e+00 4.009755e+04 # SC1-SC18 type=non-native eps=0.002390 sigma=4.000000
pair_coeff 2 36 0.000000e+00 0.000000e+00 4.009755e+04 # SC1-CA19 type=non-native eps=0.002390 sigma=4.000000
pair_coeff 2 37 0.000000e+00 0.000000e+00 4.009755e+04 # SC1-SC19 type=non-native eps=0.002390 sigma=4.000000
pair_coeff 2 38 0.000000e+00 0.000000e+00 4.009755e+04 # SC1-CA20 type=non-native eps=0.002390 sigma=4.000000
pair_coeff 2 39 0.000000e+00 0.000000e+00 4.009755e+04 # SC1-SC20 type=non-native eps=0.002390 sigma=4.000000
pair_coeff 2 40 0.000000e+00 0.000000e+00 4.009755e+04 # SC1-CA21 type=non-native eps=0.002390 sigma=4.000000
pair_coeff 2 41 0.000000e+00 0.000000e+00 1.293687e+05 # SC1-SC21 type=non-native eps=0.002390 sigma=4.410142
pair_coeff 2 42 0.000000e+00 0.000000e+00 4.009755e+04 # SC1-CA22 type=non-native eps=0.002390 sigma=4.000000
pair_coeff 2 43 0.000000e+00 0.000000e+00 4.009755e+04 # SC1-CA23 type=non-native eps=0.002390 sigma=4.000000
pair_coeff 2 44 0.000000e+00 0.000000e+00 6.317440e+04 # SC1-SC23 type=non-native eps=0.002390 sigma=4.154435
pair_coeff 2 45 0.000000e+00 0.000000e+00 4.009755e+04 # SC1-CA24 type=non-native eps=0.002390 sigma=4.000000
pair_coeff 2 46 0.000000e+00 0.000000e+00 6.317440e+04 # SC1-SC24 type=non-native eps=0.002390 sigma=4.154435
pair_coeff 2 47 0.000000e+00 0.000000e+00 4.009755e+04 # SC1-CA25 type=non-native eps=0.002390 sigma=4.000000
pair_coeff 2 48 0.000000e+00 0.000000e+00 4.009755e+04 # SC1-SC25 type=non-native eps=0.002390 sigma=4.000000
pair_coeff 2 49 0.000000e+00 0.000000e+00 4.009755e+04 # SC1-CA26 type=non-native eps=0.002390 sigma=4.000000
pair_coeff 2 50 0.000000e+00 0.000000e+00 4.009755e+04 # SC1-SC26 type=non-native eps=0.002390 sigma=4.000000
pair_coeff 2 51 0.000000e+00 0.000000e+00 4.009755e+04 # SC1-CA27 type=non-native eps=0.002390 sigma=4.000000
pair_coeff 2 52 0.000000e+00 0.000000e+00 4.009755e+04 # SC1-SC27 type=non-native eps=0.002390 sigma=4.000000
pair_coeff 2 53 0.000000e+00 0.000000e+00 4.009755e+04 # SC1-CA28 type=non-native eps=0.002390 sigma=4.000000
pair_coeff 2 54 0.000000e+00 0.000000e+00 6.317440e+04 # SC1-SC28 type=non-native eps=0.002390 sigma=4.154435
pair_coeff 2 55 0.000000e+00 0.000000e+00 4.009755e+04 # SC1-CA29 type=non-native eps=0.002390 sigma=4.000000
pair_coeff 2 56 0.000000e+00 0.000000e+00 1.293687e+05 # SC1-SC29 type=non-native eps=0.002390 sigma=4.410142
pair_coeff 2 57 0.000000e+00 0.000000e+00 4.009755e+04 # SC1-CA30 type=non-native eps=0.002390 sigma=4.000000
pair_coeff 2 58 0.000000e+00 0.000000e+00 6.317440e+04 # SC1-SC30 type=non-native eps=0.002390 sigma=4.154435
pair_coeff 2 59 0.000000e+00 0.000000e+00 4.009755e+04 # SC1-CA31 type=non-native eps=0.002390 sigma=4.000000
pair_coeff 2 60 0.000000e+00 0.000000e+00 4.009755e+04 # SC1-SC31 type=non-native eps=0.002390 sigma=4.000000
pair_coeff 2 61 0.000000e+00 0.000000e+00 4.009755e+04 # SC1-CA32 type=non-native eps=0.002390 sigma=4.000000
pair_coeff 2 62 0.000000e+00 0.000000e+00 4.009755e+04 # SC1-SC32 type=non-native eps=0.002390 sigma=4.000000
pair_coeff 2 63 0.000000e+00 0.000000e+00 4.009755e+04 # SC1-CA33 type=non-native eps=0.002390 sigma=4.000000
pair_coeff 2 64 0.000000e+00 0.000000e+00 4.009755e+04 # SC1-SC33 type=non-native eps=0.002390 sigma=4.000000
pair_coeff 2 65 0.000000e+00 0.000000e+00 4.009755e+04 # SC1-CA34 type=non-native eps=0.002390 sigma=4.000000
pair_coeff 2 66 0.000000e+00 0.000000e+00 6.317440e+04 # SC1-SC34 type=non-native eps=0.002390 sigma=4.154435
pair_coeff 2 67 0.000000e+00 0.000000e+00 4.009755e+04 # SC1-CA35 type=non-native eps=0.002390 sigma=4.000000
pair_coeff 2 68 0.000000e+00 0.000000e+00 4.009755e+04 # SC1-SC35 type=non-native eps=0.002390 sigma=4.000000
pair_coeff 2 69 0.000000e+00 0.000000e+00 4.009755e+04 # SC1-CA36 type=non-native eps=0.002390 sigma=4.000000
pair_coeff 2 70 0.000000e+00 0.000000e+00 6.317440e+04 # SC1-SC36 type=non-native eps=0.002390 sigma=4.154435
pair_coeff 2 71 0.000000e+00 0.000000e+00 4.009755e+04 # SC1-CA37 type=non-native eps=0.002390 sigma=4.000000
pair_coeff 2 72 0.000000e+00 0.000000e+00 1.737309e+05 # SC1-SC37 type=non-native eps=0.002390 sigma=4.519842
pair_coeff 2 73 0.000000e+00 0.000000e+00 4.009755e+04 # SC1-CA38 type=non-native eps=0.002390 sigma=4.000000
pair_coeff 2 74 0.000000e+00 0.000000e+00 4.009755e+04 # SC1-CA39 type=non-native eps=0.002390 sigma=4.000000
pair_coeff 2 75 0.000000e+00 0.000000e+00 2.286802e+04 # SC1-SC39 type=non-native eps=0.002390 sigma=3.817121
pair_coeff 2 76 0.000000e+00 0.000000e+00 4.009755e+04 # SC1-CA40 type=non-native eps=0.002390 sigma=4.000000
pair_coeff 2 77 0.000000e+00 0.000000e+00 4.009755e+04 # SC1-SC40 type=non-native eps=0.002390 sigma=4.000000
pair_coeff 2 78 0.000000e+00 0.000000e+00 4.009755e+04 # SC1-CA41 type=non-native eps=0.002390 sigma=4.000000
pair_coeff 2 79 0.000000e+00 0.000000e+00 2.286802e+04 # SC1-SC41 type=non-native eps=0.002390 sigma=3.817121
pair_coeff 2 80 0.000000e+00 0.000000e+00 4.009755e+04 # SC1-CA42 type=non-native eps=0.002390 sigma=4.000000
pair_coeff 2 81 0.000000e+00 0.000000e+00 6.317440e+04 # SC1-SC42 type=non-native eps=0.002390 sigma=4.154435
pair_coeff 2 82 0.000000e+00 0.000000e+00 4.009755e+04 # SC1-CA43 type=non-native eps=0.002390 sigma=4.000000
pair_coeff 2 83 0.000000e+00 0.000000e+00 4.009755e+04 # SC1-SC43 type=non-native eps=0.002390 sigma=4.000000
pair_coeff 2 84 0.000000e+00 0.000000e+00 4.009755e+04 # SC1-CA44 type=non-native eps=0.002390 sigma=4.000000
pair_coeff 2 85 0.000000e+00 0.000000e+00 4.009755e+04 # SC1-SC44 type=non-native eps=0.002390 sigma=4.000000
pair_coeff 2 86 0.000000e+00 0.000000e+00 4.009755e+04 # SC1-CA45 type=non-native eps=0.002390 sigma=4.000000
pair_coeff 2 87 0.000000e+00 0.000000e+00 6.317440e+04 # SC1-SC45 type=non-native eps=0.002390 sigma=4.154435
pair_coeff 2 88 0.000000e+00 0.000000e+00 4.009755e+04 # SC1-CA46 type=non-native eps=0.002390 sigma=4.000000
pair_coeff 2 89 0.000000e+00 0.000000e+00 4.009755e+04 # SC1-SC46 type=non-native eps=0.002390 sigma=4.000000
pair_coeff 2 90 0.000000e+00 0.000000e+00 4.009755e+04 # SC1-CA47 type=non-native eps=0.002390 sigma=4.000000
pair_coeff 2 91 0.000000e+00 0.000000e+00 4.009755e+04 # SC1-SC47 type=non-native eps=0.002390 sigma=4.000000
pair_coeff 2 92 0.000000e+00 0.000000e+00 4.009755e+04 # SC1-CA48 type=non-native eps=0.002390 sigma=4.000000
pair_coeff 2 93 0.000000e+00 0.000000e+00 6.317440e+04 # SC1-SC48 type=non-native eps=0.002390 sigma=4.154435
pair_coeff 2 94 0.000000e+00 0.000000e+00 4.009755e+04 # SC1-CA49 type=non-native eps=0.002390 sigma=4.000000
pair_coeff 2 95 0.000000e+00 0.000000e+00 2.286802e+04 # SC1-SC49 type=non-native eps=0.002390 sigma=3.817121
pair_coeff 2 96 0.000000e+00 0.000000e+00 4.009755e+04 # SC1-CA50 type=non-native eps=0.002390 sigma=4.000000
pair_coeff 2 97 0.000000e+00 0.000000e+00 1.085818e+04 # SC1-SC50 type=non-native eps=0.002390 sigma=3.587401
pair_coeff 2 98 0.000000e+00 0.000000e+00 4.009755e+04 # SC1-CA51 type=non-native eps=0.002390 sigma=4.000000
pair_coeff 2 99 0.000000e+00 0.000000e+00 6.317440e+04 # SC1-SC51 type=non-native eps=0.002390 sigma=4.154435
pair_coeff 2 100 0.000000e+00 0.000000e+00 4.009755e+04 # SC1-CA52 type=non-native eps=0.002390 sigma=4.000000
pair_coeff 2 101 0.000000e+00 0.000000e+00 4.009755e+04 # SC1-SC52 type=non-native eps=0.002390 sigma=4.000000
pair_coeff 2 102 0.000000e+00 0.000000e+00 4.009755e+04 # SC1-CA53 type=non-native eps=0.002390 sigma=4.000000
pair_coeff 2 103 0.000000e+00 0.000000e+00 6.317440e+04 # SC1-SC53 type=non-native eps=0.002390 sigma=4.154435
pair_coeff 2 104 0.000000e+00 0.000000e+00 4.009755e+04 # SC1-CA54 type=non-native eps=0.002390 sigma=4.000000
pair_coeff 2 105 0.000000e+00 0.000000e+00 1.293687e+05 # SC1-SC54 type=non-native eps=0.002390 sigma=4.410142
pair_coeff 2 106 0.000000e+00 0.000000e+00 4.009755e+04 # SC1-CA55 type=non-native eps=0.002390 sigma=4.000000
pair_coeff 2 107 0.000000e+00 0.000000e+00 1.293687e+05 # SC1-SC55 type=non-native eps=0.002390 sigma=4.410142
pair_coeff 2 108 0.000000e+00 0.000000e+00 4.009755e+04 # SC1-CA56 type=non-native eps=0.002390 sigma=4.000000
pair_coeff 2 109 0.000000e+00 0.000000e+00 1.737309e+05 # SC1-SC56 type=non-native eps=0.002390 sigma=4.519842
pair_coeff 2 110 0.000000e+00 0.000000e+00 4.009755e+04 # SC1-CA57 type=non-native eps=0.002390 sigma=4.000000
pair_coeff 2 111 0.000000e+00 0.000000e+00 1.737309e+05 # SC1-SC57 type=non-native eps=0.002390 sigma=4.519842
pair_coeff 2 112 0.000000e+00 0.000000e+00 4.009755e+04 # SC1-CA58 type=non-native eps=0.002390 sigma=4.000000
pair_coeff 2 113 0.000000e+00 0.000000e+00 2.286802e+04 # SC1-SC58 type=non-native eps=0.002390 sigma=3.817121
pair_coeff 2 114 0.000000e+00 0.000000e+00 4.009755e+04 # SC1-CA59 type=non-native eps=0.002390 sigma=4.000000
pair_coeff 2 115 0.000000e+00 0.000000e+00 1.085818e+04 # SC1-SC59 type=non-native eps=0.002390 sigma=3.587401
pair_coeff 2 116 0.000000e+00 0.000000e+00 4.009755e+04 # SC1-CA60 type=non-native eps=0.002390 sigma=4.000000
pair_coeff 2 117 0.000000e+00 0.000000e+00 2.286802e+04 # SC1-SC60 type=non-native eps=0.002390 sigma=3.817121
pair_coeff 2 118 0.000000e+00 0.000000e+00 4.009755e+04 # SC1-CA61 type=non-native eps=0.002390 sigma=4.000000
pair_coeff 2 119 0.000000e+00 0.000000e+00 4.009755e+04 # SC1-SC61 type=non-native eps=0.002390 sigma=4.000000
pair_coeff 2 120 0.000000e+00 0.000000e+00 4.009755e+04 # SC1-CA62 type=non-native eps=0.002390 sigma=4.000000
pair_coeff 2 121 0.000000e+00 0.000000e+00 3.442571e+03 # SC1-SC62 type=non-native eps=0.002390 sigma=3.259921
pair_coeff 2 122 0.000000e+00 0.000000e+00 4.009755e+04 # SC1-CA63 type=non-native eps=0.002390 sigma=4.000000
pair_coeff 2 123 0.000000e+00 0.000000e+00 4.009755e+04 # SC1-CA64 type=non-native eps=0.002390 sigma=4.000000
pair_coeff 2 124 0.000000e+00 0.000000e+00 4.009755e+04 # SC1-SC64 type=non-native eps=0.002390 sigma=4.000000
pair_coeff 2 125 0.000000e+00 0.000000e+00 4.009755e+04 # SC1-CA65 type=non-native eps=0.002390 sigma=4.000000
pair_coeff 2 126 0.000000e+00 0.000000e+00 4.009755e+04 # SC1-CA66 type=non-native eps=0.002390 sigma=4.000000
pair_coeff 2 127 0.000000e+00 0.000000e+00 6.317440e+04 # SC1-SC66 type=non-native eps=0.002390 sigma=4.154435
pair_coeff 2 128 0.000000e+00 0.000000e+00 4.009755e+04 # SC1-CA67 type=non-native eps=0.002390 sigma=4.000000
pair_coeff 2 129 0.000000e+00 0.000000e+00 6.317440e+04 # SC1-SC67 type=non-native eps=0.002390 sigma=4.154435
pair_coeff 2 130 0.000000e+00 0.000000e+00 4.009755e+04 # SC1-CA68 type=non-native eps=0.002390 sigma=4.000000
pair_coeff 2 131 0.000000e+00 0.000000e+00 1.085818e+04 # SC1-SC68 type=non-native eps=0.002390 sigma=3.587401
pair_coeff 2 132 0.000000e+00 0.000000e+00 4.009755e+04 # SC1-CA69 type=non-native eps=0.002390 sigma=4.000000
pair_coeff 2 133 0.000000e+00 0.000000e+00 6.317440e+04 # SC1-SC69 type=non-native eps=0.002390 sigma=4.154435
pair_coeff 2 134 0.000000e+00 0.000000e+00 4.009755e+04 # SC1-CA70 type=non-native eps=0.002390 sigma=4.000000
pair_coeff 2 135 0.000000e+00 0.000000e+00 1.293687e+05 # SC1-SC70 type=non-native eps=0.002390 sigma=4.410142
pair_coeff 2 136 0.000000e+00 0.000000e+00 4.009755e+04 # SC1-CA71 type=non-native eps=0.002390 sigma=4.000000
pair_coeff 2 137 0.000000e+00 0.000000e+00 6.317440e+04 # SC1-SC71 type=non-native eps=0.002390 sigma=4.154435
pair_coeff 2 138 0.000000e+00 0.000000e+00 4.009755e+04 # SC1-CA72 type=non-native eps=0.002390 sigma=4.000000
pair_coeff 2 139 0.000000e+00 0.000000e+00 4.009755e+04 # SC1-SC72 type=non-native eps=0.002390 sigma=4.000000
pair_coeff 2 140 0.000000e+00 0.000000e+00 4.009755e+04 # SC1-CA73 type=non-native eps=0.002390 sigma=4.000000
pair_coeff 2 141 0.000000e+00 0.000000e+00 1.293687e+05 # SC1-SC73 type=non-native eps=0.002390 sigma=4.410142
pair_coeff 2 142 0.000000e+00 0.000000e+00 4.009755e+04 # SC1-CA74 type=non-native eps=0.002390 sigma=4.000000
pair_coeff 2 143 0.000000e+00 0.000000e+00 6.317440e+04 # SC1-SC74 type=non-native eps=0.002390 sigma=4.154435
pair_coeff 2 144 0.000000e+00 0.000000e+00 4.009755e+04 # SC1-CA75 type=non-native eps=0.002390 sigma=4.000000
pair_coeff 2 145 -3.643360e+03 0.000000e+00 3.471253e+07 # SC1-SC75 type=native eps=0.095600 sigma=5.168157
pair_coeff 2 146 0.000000e+00 0.000000e+00 4.009755e+04 # SC1-CA76 type=non-native eps=0.002390 sigma=4.000000
pair_coeff 2 147 0.000000e+00 0.000000e+00 2.286802e+04 # SC1-SC76 type=non-native eps=0.002390 sigma=3.817121
pair_coeff 2 148 0.000000e+00 0.000000e+00 4.009755e+04 # SC1-CA77 type=non-native eps=0.002390 sigma=4.000000
pair_coeff 2 149 0.000000e+00 0.000000e+00 4.009755e+04 # SC1-SC77 type=non-native eps=0.002390 sigma=4.000000
pair_coeff 2 150 0.000000e+00 0.000000e+00 4.009755e+04 # SC1-CA78 type=non-native eps=0.002390 sigma=4.000000
pair_coeff 2 151 0.000000e+00 0.000000e+00 2.286802e+04 # SC1-SC78 type=non-native eps=0.002390 sigma=3.817121
pair_coeff 2 152 -1.645100e+04 0.000000e+00 5.661832e+08 # SC1-CA79 type=native eps=0.119500 sigma=6.401756
pair_coeff 2 153 -1.719308e+04 0.000000e+00 1.855242e+09 # SC1-SC79 type=native eps=0.039833 sigma=7.744847
pair_coeff 2 154 0.000000e+00 0.000000e+00 4.009755e+04 # SC1-CA80 type=non-native eps=0.002390 sigma=4.000000
pair_coeff 2 155 0.000000e+00 0.000000e+00 6.317440e+04 # SC1-SC80 type=non-native eps=0.002390 sigma=4.154435
pair_coeff 2 156 0.000000e+00 0.000000e+00 4.009755e+04 # SC1-CA81 type=non-native eps=0.002390 sigma=4.000000
pair_coeff 2 157 0.000000e+00 0.000000e+00 4.009755e+04 # SC1-SC81 type=non-native eps=0.002390 sigma=4.000000
pair_coeff 2 158 0.000000e+00 0.000000e+00 4.009755e+04 # SC1-CA82 type=non-native eps=0.002390 sigma=4.000000
pair_coeff 2 159 0.000000e+00 0.000000e+00 2.286802e+04 # SC1-SC82 type=non-native eps=0.002390 sigma=3.817121
pair_coeff 2 160 0.000000e+00 0.000000e+00 4.009755e+04 # SC1-CA83 type=non-native eps=0.002390 sigma=4.000000
pair_coeff 2 161 0.000000e+00 0.000000e+00 4.009755e+04 # SC1-CA84 type=non-native eps=0.002390 sigma=4.000000
pair_coeff 2 162 0.000000e+00 0.000000e+00 1.293687e+05 # SC1-SC84 type=non-native eps=0.002390 sigma=4.410142
pair_coeff 2 163 0.000000e+00 0.000000e+00 4.009755e+04 # SC1-CA85 type=non-native eps=0.002390 sigma=4.000000
pair_coeff 2 164 0.000000e+00 0.000000e+00 6.317440e+04 # SC1-SC85 type=non-native eps=0.002390 sigma=4.154435
pair_coeff 2 165 0.000000e+00 0.000000e+00 4.009755e+04 # SC1-CA86 type=non-native eps=0.002390 sigma=4.000000
pair_coeff 2 166 0.000000e+00 0.000000e+00 1.085818e+04 # SC1-SC86 type=non-native eps=0.002390 sigma=3.587401
pair_coeff 2 167 0.000000e+00 0.000000e+00 4.009755e+04 # SC1-CA87 type=non-native eps=0.002390 sigma=4.000000
pair_coeff 2 168 0.000000e+00 0.000000e+00 1.293687e+05 # SC1-SC87 type=non-native eps=0.002390 sigma=4.410142
pair_coeff 2 169 0.000000e+00 0.000000e+00 4.009755e+04 # SC1-CA88 type=non-native eps=0.002390 sigma=4.000000
pair_coeff 2 170 0.000000e+00 0.000000e+00 6.317440e+04 # SC1-SC88 type=non-native eps=0.002390 sigma=4.154435
pair_coeff 2 171 0.000000e+00 0.000000e+00 4.009755e+04 # SC1-CA89 type=non-native eps=0.002390 sigma=4.000000
pair_coeff 2 172 0.000000e+00 0.000000e+00 4.009755e+04 # SC1-SC89 type=non-native eps=0.002390 sigma=4.000000
pair_coeff 2 173 0.000000e+00 0.000000e+00 4.009755e+04 # SC1-CA90 type=non-native eps=0.002390 sigma=4.000000
pair_coeff 2 174 0.000000e+00 0.000000e+00 4.009755e+04 # SC1-SC90 type=non-native eps=0.002390 sigma=4.000000
pair_coeff 2 175 0.000000e+00 0.000000e+00 4.009755e+04 # SC1-CA91 type=non-native eps=0.002390 sigma=4.000000
pair_coeff 2 176 0.000000e+00 0.000000e+00 4.009755e+04 # SC1-SC91 type=non-native eps=0.002390 sigma=4.000000
pair_coeff 2 177 0.000000e+00 0.000000e+00 4.009755e+04 # SC1-CA92 type=non-native eps=0.002390 sigma=4.000000
pair_coeff 2 178 0.000000e+00 0.000000e+00 4.009755e+04 # SC1-SC92 type=non-native eps=0.002390 sigma=4.000000
pair_coeff 2 179 0.000000e+00 0.000000e+00 4.009755e+04 # SC1-CA93 type=non-native eps=0.002390 sigma=4.000000
pair_coeff 2 180 0.000000e+00 0.000000e+00 4.009755e+04 # SC1-SC93 type=non-native eps=0.002390 sigma=4.000000
pair_coeff 2 181 0.000000e+00 0.000000e+00 4.009755e+04 # SC1-CA94 type=non-native eps=0.002390 sigma=4.000000
pair_coeff 2 182 0.000000e+00 0.000000e+00 4.009755e+04 # SC1-SC94 type=non-native eps=0.002390 sigma=4.000000
pair_coeff 2 183 0.000000e+00 0.000000e+00 4.009755e+04 # SC1-CA95 type=non-native eps=0.002390 sigma=4.000000
pair_coeff 2 184 0.000000e+00 0.000000e+00 4.009755e+04 # SC1-CA96 type=non-native eps=0.002390 sigma=4.000000
pair_coeff 2 185 0.000000e+00 0.000000e+00 2.264320e+05 # SC1-SC96 type=non-native eps=0.002390 sigma=4.620741
pair_coeff 3 3 0.000000e+00 0.000000e+00 4.009755e+04 # CA2-CA2 type=non-native eps=0.002390 sigma=4.000000
pair_coeff 3 4 0.000000e+00 0.000000e+00 4.009755e+04 # CA2-SC2 type=non-native eps=0.002390 sigma=4.000000
pair_coeff 3 5 0.000000e+00 0.000000e+00 4.009755e+04 # CA2-CA3 type=non-native eps=0.002390 sigma=4.000000
pair_coeff 3 6 0.000000e+00 0.000000e+00 4.009755e+04 # CA2-SC3 type=non-native eps=0.002390 sigma=4.000000
pair_coeff 3 7 0.000000e+00 0.000000e+00 4.009755e+04 # CA2-CA4 type=non-native eps=0.002390 sigma=4.000000
pair_coeff 3 8 0.000000e+00 0.000000e+00 4.009755e+04 # CA2-SC4 type=non-native eps=0.002390 sigma=4.000000
pair_coeff 3 9 0.000000e+00 0.000000e+00 4.009755e+04 # CA2-CA5 type=non-native eps=0.002390 sigma=4.000000
pair_coeff 3 10 0.000000e+00 0.000000e+00 4.009755e+04 # CA2-CA6 type=non-native eps=0.002390 sigma=4.000000
pair_coeff 3 11 0.000000e+00 0.000000e+00 4.009755e+04 # CA2-SC6 type=non-native eps=0.002390 sigma=4.000000
pair_coeff 3 12 0.000000e+00 0.000000e+00 4.009755e+04 # CA2-CA7 type=non-native eps=0.002390 sigma=4.000000
pair_coeff 3 13 0.000000e+00 0.000000e+00 4.009755e+04 # CA2-SC7 type=non-native eps=0.002390 sigma=4.000000
pair_coeff 3 14 0.000000e+00 0.000000e+00 4.009755e+04 # CA2-CA8 type=non-native eps=0.002390 sigma=4.000000
pair_coeff 3 15 0.000000e+00 0.000000e+00 4.009755e+04 # CA2-SC8 type=non-native eps=0.002390 sigma=4.000000
pair_coeff 3 16 0.000000e+00 0.000000e+00 4.009755e+04 # CA2-CA9 type=non-native eps=0.002390 sigma=4.000000
pair_coeff 3 17 0.000000e+00 0.000000e+00 6.317440e+04 # CA2-SC9 type=non-native eps=0.002390 sigma=4.154435
pair_coeff 3 18 0.000000e+00 0.000000e+00 4.009755e+04 # CA2-CA10 type=non-native eps=0.002390 sigma=4.000000
pair_coeff 3 19 0.000000e+00 0.000000e+00 4.009755e+04 # CA2-SC10 type=non-native eps=0.002390 sigma=4.000000
pair_coeff 3 20 0.000000e+00 0.000000e+00 4.009755e+04 # CA2-CA11 type=non-native eps=0.002390 sigma=4.000000
pair_coeff 3 21 0.000000e+00 0.000000e+00 6.317440e+04 # CA2-SC11 type=non-native eps=0.002390 sigma=4.154435
pair_coeff 3 22 0.000000e+00 0.000000e+00 4.009755e+04 # CA2-CA12 type=non-native eps=0.002390 sigma=4.000000
pair_coeff 3 23 0.000000e+00 0.000000e+00 4.009755e+04 # CA2-SC12 type=non-native eps=0.002390 sigma=4.000000
pair_coeff 3 24 0.000000e+00 0.000000e+00 4.009755e+04 # CA2-CA13 type=non-native eps=0.002390 sigma=4.000000
pair_coeff 3 25 0.000000e+00 0.000000e+00 6.317440e+04 # CA2-SC13 type=non-native eps=0.002390 sigma=4.154435
pair_coeff 3 26 0.000000e+00 0.000000e+00 4.009755e+04 # CA2-CA14 type=non-native eps=0.002390 sigma=4.000000
pair_coeff 3 27 0.000000e+00 0.000000e+00 4.009755e+04 # CA2-SC14 type=non-native eps=0.002390 sigma=4.000000
pair_coeff 3 28 0.000000e+00 0.000000e+00 4.009755e+04 # CA2-CA15 type=non-native eps=0.002390 sigma=4.000000
pair_coeff 3 29 0.000000e+00 0.000000e+00 2.286802e+04 # CA2-SC15 type=non-native eps=0.002390 sigma=3.817121
pair_coeff 3 30 0.000000e+00 0.000000e+00 4.009755e+04 # CA2-CA16 type=non-native eps=0.002390 sigma=4.000000
pair_coeff 3 31 0.000000e+00 0.000000e+00 2.286802e+04 # CA2-SC16 type=non-native eps=0.002390 sigma=3.817121
pair_coeff 3 32 0.000000e+00 0.000000e+00 4.009755e+04 # CA2-CA17 type=non-native eps=0.002390 sigma=4.000000
pair_coeff 3 33 0.000000e+00 0.000000e+00 4.009755e+04 # CA2-SC17 type=non-native eps=0.002390 sigma=4.000000
pair_coeff 3 34 0.000000e+00 0.000000e+00 4.009755e+04 # CA2-CA18 type=non-native eps=0.002390 sigma=4.000000
pair_coeff 3 35 0.000000e+00 0.000000e+00 4.009755e+04 # CA2-SC18 type=non-native eps=0.002390 sigma=4.000000
pair_coeff 3 36 0.000000e+00 0.000000e+00 4.009755e+04 # CA2-CA19 type=non-native eps=0.002390 sigma=4.000000
pair_coeff 3 37 0.000000e+00 0.000000e+00 4.009755e+04 # CA2-SC19 type=non-native eps=0.002390 sigma=4.000000
pair_coeff 3 38 0.000000e+00 0.000000e+00 4.009755e+04 # CA2-CA20 type=non-native eps=0.002390 sigma=4.000000
pair_coeff 3 39 0.000000e+00 0.000000e+00 4.009755e+04 # CA2-SC20 type=non-native eps=0.002390 sigma=4.000000
pair_coeff 3 40 0.000000e+00 0.000000e+00 4.009755e+04 # CA2-CA21 type=non-native eps=0.002390 sigma=4.000000
pair_coeff 3 41 0.000000e+00 0.000000e+00 1.293687e+05 # CA2-SC21 type=non-native eps=0.002390 sigma=4.410142
pair_coeff 3 42 0.000000e+00 0.000000e+00 4.009755e+04 # CA2-CA22 type=non-native eps=0.002390 sigma=4.000000
pair_coeff 3 43 0.000000e+00 0.000000e+00 4.009755e+04 # CA2-CA23 type=non-native eps=0.002390 sigma=4.000000
pair_coeff 3 44 0.000000e+00 0.000000e+00 6.317440e+04 # CA2-SC23 type=non-native eps=0.002390 sigma=4.154435
pair_coeff 3 45 0.000000e+00 0.000000e+00 4.009755e+04 # CA2-CA24 type=non-native eps=0.002390 sigma=4.000000
pair_coeff 3 46 0.000000e+00 0.000000e+00 6.317440e+04 # CA2-SC24 type=non-native eps=0.002390 sigma=4.154435
pair_coeff 3 47 0.000000e+00 0.000000e+00 4.009755e+04 # CA2-CA25 type=non-native eps=0.002390 sigma=4.000000
pair_coeff 3 48 0.000000e+00 0.000000e+00 4.009755e+04 # CA2-SC25 type=non-native eps=0.002390 sigma=4.000000
pair_coeff 3 49 0.000000e+00 0.000000e+00 4.009755e+04 # CA2-CA26 type=non-native eps=0.002390 sigma=4.000000
pair_coeff 3 50 0.000000e+00 0.000000e+00 4.009755e+04 # CA2-SC26 type=non-native eps=0.002390 sigma=4.000000
pair_coeff 3 51 0.000000e+00 0.000000e+00 4.009755e+04 # CA2-CA27 type=non-native eps=0.002390 sigma=4.000000
pair_coeff 3 52 0.000000e+00 0.000000e+00 4.009755e+04 # CA2-SC27 type=non-native eps=0.002390 sigma=4.000000
pair_coeff 3 53 0.000000e+00 0.000000e+00 4.009755e+04 # CA2-CA28 type=non-native eps=0.002390 sigma=4.000000
pair_coeff 3 54 0.000000e+00 0.000000e+00 6.317440e+04 # CA2-SC28 type=non-native eps=0.002390 sigma=4.154435
pair_coeff 3 55 0.000000e+00 0.000000e+00 4.009755e+04 # CA2-CA29 type=non-native eps=0.002390 sigma=4.000000
pair_coeff 3 56 -1.314446e+04 0.000000e+00 9.036443e+08 # CA2-SC29 type=native eps=0.047800 sigma=7.184239
pair_coeff 3 57 0.000000e+00 0.000000e+00 4.009755e+04 # CA2-CA30 type=non-native eps=0.002390 sigma=4.000000
pair_coeff 3 58 0.000000e+00 0.000000e+00 6.317440e+04 # CA2-SC30 type=non-native eps=0.002390 sigma=4.154435
pair_coeff 3 59 0.000000e+00 0.000000e+00 4.009755e+04 # CA2-CA31 type=non-native eps=0.002390 sigma=4.000000
pair_coeff 3 60 0.000000e+00 0.000000e+00 4.009755e+04 # CA2-SC31 type=non-native eps=0.002390 sigma=4.000000
pair_coeff 3 61 0.000000e+00 0.000000e+00 4.009755e+04 # CA2-CA32 type=non-native eps=0.002390 sigma=4.000000
pair_coeff 3 62 0.000000e+00 0.000000e+00 4.009755e+04 # CA2-SC32 type=non-native eps=0.002390 sigma=4.000000
pair_coeff 3 63 0.000000e+00 0.000000e+00 4.009755e+04 # CA2-CA33 type=non-native eps=0.002390 sigma=4.000000
pair_coeff 3 64 0.000000e+00 0.000000e+00 4.009755e+04 # CA2-SC33 type=non-native eps=0.002390 sigma=4.000000
pair_coeff 3 65 0.000000e+00 0.000000e+00 4.009755e+04 # CA2-CA34 type=non-native eps=0.002390 sigma=4.000000
pair_coeff 3 66 0.000000e+00 0.000000e+00 6.317440e+04 # CA2-SC34 type=non-native eps=0.002390 sigma=4.154435
pair_coeff 3 67 0.000000e+00 0.000000e+00 4.009755e+04 # CA2-CA35 type=non-native eps=0.002390 sigma=4.000000
pair_coeff 3 68 0.000000e+00 0.000000e+00 4.009755e+04 # CA2-SC35 type=non-native eps=0.002390 sigma=4.000000
pair_coeff 3 69 0.000000e+00 0.000000e+00 4.009755e+04 # CA2-CA36 type=non-native eps=0.002390 sigma=4.000000
pair_coeff 3 70 0.000000e+00 0.000000e+00 6.317440e+04 # CA2-SC36 type=non-native eps=0.002390 sigma=4.154435
pair_coeff 3 71 0.000000e+00 0.000000e+00 4.009755e+04 # CA2-CA37 type=non-native eps=0.002390 sigma=4.000000
pair_coeff 3 72 0.000000e+00 0.000000e+00 1.737309e+05 # CA2-SC37 type=non-native eps=0.002390 sigma=4.519842
pair_coeff 3 73 0.000000e+00 0.000000e+00 4.009755e+04 # CA2-CA38 type=non-native eps=0.002390 sigma=4.000000
pair_coeff 3 74 0.000000e+00 0.000000e+00 4.009755e+04 # CA2-CA39 type=non-native eps=0.002390 sigma=4.000000
pair_coeff 3 75 0.000000e+00 0.000000e+00 2.286802e+04 # CA2-SC39 type=non-native eps=0.002390 sigma=3.817121
pair_coeff 3 76 0.000000e+00 0.000000e+00 4.009755e+04 # CA2-CA40 type=non-native eps=0.002390 sigma=4.000000
pair_coeff 3 77 0.000000e+00 0.000000e+00 4.009755e+04 # CA2-SC40 type=non-native eps=0.002390 sigma=4.000000
pair_coeff 3 78 0.000000e+00 0.000000e+00 4.009755e+04 # CA2-CA41 type=non-native eps=0.002390 sigma=4.000000
pair_coeff 3 79 0.000000e+00 0.000000e+00 2.286802e+04 # CA2-SC41 type=non-native eps=0.002390 sigma=3.817121
pair_coeff 3 80 0.000000e+00 0.000000e+00 4.009755e+04 # CA2-CA42 type=non-native eps=0.002390 sigma=4.000000
pair_coeff 3 81 0.000000e+00 0.000000e+00 6.317440e+04 # CA2-SC42 type=non-native eps=0.002390 sigma=4.154435
pair_coeff 3 82 0.000000e+00 0.000000e+00 4.009755e+04 # CA2-CA43 type=non-native eps=0.002390 sigma=4.000000
pair_coeff 3 83 0.000000e+00 0.000000e+00 4.009755e+04 # CA2-SC43 type=non-native eps=0.002390 sigma=4.000000
pair_coeff 3 84 0.000000e+00 0.000000e+00 4.009755e+04 # CA2-CA44 type=non-native eps=0.002390 sigma=4.000000
pair_coeff 3 85 0.000000e+00 0.000000e+00 4.009755e+04 # CA2-SC44 type=non-native eps=0.002390 sigma=4.000000
pair_coeff 3 86 0.000000e+00 0.000000e+00 4.009755e+04 # CA2-CA45 type=non-native eps=0.002390 sigma=4.000000
pair_coeff 3 87 0.000000e+00 0.000000e+00 6.317440e+04 # CA2-SC45 type=non-native eps=0.002390 sigma=4.154435
pair_coeff 3 88 0.000000e+00 0.000000e+00 4.009755e+04 # CA2-CA46 type=non-native eps=0.002390 sigma=4.000000
pair_coeff 3 89 0.000000e+00 0.000000e+00 4.009755e+04 # CA2-SC46 type=non-native eps=0.002390 sigma=4.000000
pair_coeff 3 90 0.000000e+00 0.000000e+00 4.009755e+04 # CA2-CA47 type=non-native eps=0.002390 sigma=4.000000
pair_coeff 3 91 0.000000e+00 0.000000e+00 4.009755e+04 # CA2-SC47 type=non-native eps=0.002390 sigma=4.000000
pair_coeff 3 92 0.000000e+00 0.000000e+00 4.009755e+04 # CA2-CA48 type=non-native eps=0.002390 sigma=4.000000
pair_coeff 3 93 0.000000e+00 0.000000e+00 6.317440e+04 # CA2-SC48 type=non-native eps=0.002390 sigma=4.154435
pair_coeff 3 94 0.000000e+00 0.000000e+00 4.009755e+04 # CA2-CA49 type=non-native eps=0.002390 sigma=4.000000
pair_coeff 3 95 0.000000e+00 0.000000e+00 2.286802e+04 # CA2-SC49 type=non-native eps=0.002390 sigma=3.817121
pair_coeff 3 96 0.000000e+00 0.000000e+00 4.009755e+04 # CA2-CA50 type=non-native eps=0.002390 sigma=4.000000
pair_coeff 3 97 0.000000e+00 0.000000e+00 1.085818e+04 # CA2-SC50 type=non-native eps=0.002390 sigma=3.587401
pair_coeff 3 98 0.000000e+00 0.000000e+00 4.009755e+04 # CA2-CA51 type=non-native eps=0.002390 sigma=4.000000
pair_coeff 3 99 0.000000e+00 0.000000e+00 6.317440e+04 # CA2-SC51 type=non-native eps=0.002390 sigma=4.154435
pair_coeff 3 100 0.000000e+00 0.000000e+00 4.009755e+04 # CA2-CA52 type=non-native eps=0.002390 sigma=4.000000
pair_coeff 3 101 0.000000e+00 0.000000e+00 4.009755e+04 # CA2-SC52 type=non-native eps=0.002390 sigma=4.000000
pair_coeff 3 102 0.000000e+00 0.000000e+00 4.009755e+04 # CA2-CA53 type=non-native eps=0.002390 sigma=4.000000
pair_coeff 3 103 0.000000e+00 0.000000e+00 6.317440e+04 # CA2-SC53 type=non-native eps=0.002390 sigma=4.154435
pair_coeff 3 104 0.000000e+00 0.000000e+00 4.009755e+04 # CA2-CA54 type=non-native eps=0.002390 sigma=4.000000
pair_coeff 3 105 0.000000e+00 0.000000e+00 1.293687e+05 # CA2-SC54 type=non-native eps=0.002390 sigma=4.410142
pair_coeff 3 106 0.000000e+00 0.000000e+00 4.009755e+04 # CA2-CA55 type=non-native eps=0.002390 sigma=4.000000
pair_coeff 3 107 0.000000e+00 0.000000e+00 1.293687e+05 # CA2-SC55 type=non-native eps=0.002390 sigma=4.410142
pair_coeff 3 108 0.000000e+00 0.000000e+00 4.009755e+04 # CA2-CA56 type=non-native eps=0.002390 sigma=4.000000
pair_coeff 3 109 -1.789837e+04 0.000000e+00 8.377398e+08 # CA2-SC56 type=native eps=0.095600 sigma=6.738361
pair_coeff 3 110 0.000000e+00 0.000000e+00 4.009755e+04 # CA2-CA57 type=non-native eps=0.002390 sigma=4.000000
pair_coeff 3 111 0.000000e+00 0.000000e+00 1.737309e+05 # CA2-SC57 type=non-native eps=0.002390 sigma=4.519842
pair_coeff 3 112 0.000000e+00 0.000000e+00 4.009755e+04 # CA2-CA58 type=non-native eps=0.002390 sigma=4.000000
pair_coeff 3 113 0.000000e+00 0.000000e+00 2.286802e+04 # CA2-SC58 type=non-native eps=0.002390 sigma=3.817121
pair_coeff 3 114 0.000000e+00 0.000000e+00 4.009755e+04 # CA2-CA59 type=non-native eps=0.002390 sigma=4.000000
pair_coeff 3 115 0.000000e+00 0.000000e+00 1.085818e+04 # CA2-SC59 type=non-native eps=0.002390 sigma=3.587401
pair_coeff 3 116 0.000000e+00 0.000000e+00 4.009755e+04 # CA2-CA60 type=non-native eps=0.002390 sigma=4.000000
pair_coeff 3 117 0.000000e+00 0.000000e+00 2.286802e+04 # CA2-SC60 type=non-native eps=0.002390 sigma=3.817121
pair_coeff 3 118 0.000000e+00 0.000000e+00 4.009755e+04 # CA2-CA61 type=non-native eps=0.002390 sigma=4.000000
pair_coeff 3 119 0.000000e+00 0.000000e+00 4.009755e+04 # CA2-SC61 type=non-native eps=0.002390 sigma=4.000000
pair_coeff 3 120 0.000000e+00 0.000000e+00 4.009755e+04 # CA2-CA62 type=non-native eps=0.002390 sigma=4.000000
pair_coeff 3 121 0.000000e+00 0.000000e+00 3.442571e+03 # CA2-SC62 type=non-native eps=0.002390 sigma=3.259921
pair_coeff 3 122 0.000000e+00 0.000000e+00 4.009755e+04 # CA2-CA63 type=non-native eps=0.002390 sigma=4.000000
pair_coeff 3 123 0.000000e+00 0.000000e+00 4.009755e+04 # CA2-CA64 type=non-native eps=0.002390 sigma=4.000000
pair_coeff 3 124 0.000000e+00 0.000000e+00 4.009755e+04 # CA2-SC64 type=non-native eps=0.002390 sigma=4.000000
pair_coeff 3 125 0.000000e+00 0.000000e+00 4.009755e+04 # CA2-CA65 type=non-native eps=0.002390 sigma=4.000000
pair_coeff 3 126 0.000000e+00 0.000000e+00 4.009755e+04 # CA2-CA66 type=non-native eps=0.002390 sigma=4.000000
pair_coeff 3 127 0.000000e+00 0.000000e+00 6.317440e+04 # CA2-SC66 type=non-native eps=0.002390 sigma=4.154435
pair_coeff 3 128 0.000000e+00 0.000000e+00 4.009755e+04 # CA2-CA67 type=non-native eps=0.002390 sigma=4.000000
pair_coeff 3 129 0.000000e+00 0.000000e+00 6.317440e+04 # CA2-SC67 type=non-native eps=0.002390 sigma=4.154435
pair_coeff 3 130 0.000000e+00 0.000000e+00 4.009755e+04 # CA2-CA68 type=non-native eps=0.002390 sigma=4.000000
pair_coeff 3 131 0.000000e+00 0.000000e+00 1.085818e+04 # CA2-SC68 type=non-native eps=0.002390 sigma=3.587401
pair_coeff 3 132 0.000000e+00 0.000000e+00 4.009755e+04 # CA2-CA69 type=non-native eps=0.002390 sigma=4.000000
pair_coeff 3 133 0.000000e+00 0.000000e+00 6.317440e+04 # CA2-SC69 type=non-native eps=0.002390 sigma=4.154435
pair_coeff 3 134 0.000000e+00 0.000000e+00 4.009755e+04 # CA2-CA70 type=non-native eps=0.002390 sigma=4.000000
pair_coeff 3 135 0.000000e+00 0.000000e+00 1.293687e+05 # CA2-SC70 type=non-native eps=0.002390 sigma=4.410142
pair_coeff 3 136 0.000000e+00 0.000000e+00 4.009755e+04 # CA2-CA71 type=non-native eps=0.002390 sigma=4.000000
pair_coeff 3 137 0.000000e+00 0.000000e+00 6.317440e+04 # CA2-SC71 type=non-native eps=0.002390 sigma=4.154435
pair_coeff 3 138 0.000000e+00 0.000000e+00 4.009755e+04 # CA2-CA72 type=non-native eps=0.002390 sigma=4.000000
pair_coeff 3 139 0.000000e+00 0.000000e+00 4.009755e+04 # CA2-SC72 type=non-native eps=0.002390 sigma=4.000000
pair_coeff 3 140 0.000000e+00 0.000000e+00 4.009755e+04 # CA2-CA73 type=non-native eps=0.002390 sigma=4.000000
pair_coeff 3 141 0.000000e+00 0.000000e+00 1.293687e+05 # CA2-SC73 type=non-native eps=0.002390 sigma=4.410142
pair_coeff 3 142 0.000000e+00 0.000000e+00 4.009755e+04 # CA2-CA74 type=non-native eps=0.002390 sigma=4.000000
pair_coeff 3 143 -1.365382e+04 0.000000e+00 4.875179e+08 # CA2-SC74 type=native eps=0.095600 sigma=6.441115
pair_coeff 3 144 -2.857986e+03 0.000000e+00 3.417609e+07 # CA2-CA75 type=native eps=0.059750 sigma=5.367623
pair_coeff 3 145 -3.734339e+03 0.000000e+00 5.834849e+07 # CA2-SC75 type=native eps=0.059750 sigma=5.612301
pair_coeff 3 146 0.000000e+00 0.000000e+00 4.009755e+04 # CA2-CA76 type=non-native eps=0.002390 sigma=4.000000
pair_coeff 3 147 0.000000e+00 0.000000e+00 2.286802e+04 # CA2-SC76 type=non-native eps=0.002390 sigma=3.817121
pair_coeff 3 148 0.000000e+00 0.000000e+00 4.009755e+04 # CA2-CA77 type=non-native eps=0.002390 sigma=4.000000
pair_coeff 3 149 0.000000e+00 0.000000e+00 4.009755e+04 # CA2-SC77 type=non-native eps=0.002390 sigma=4.000000
pair_coeff 3 150 0.000000e+00 0.000000e+00 4.009755e+04 # CA2-CA78 type=non-native eps=0.002390 sigma=4.000000
pair_coeff 3 151 0.000000e+00 0.000000e+00 2.286802e+04 # CA2-SC78 type=non-native eps=0.002390 sigma=3.817121
pair_coeff 3 152 0.000000e+00 0.000000e+00 4.009755e+04 # CA2-CA79 type=non-native eps=0.002390 sigma=4.000000
pair_coeff 3 153 0.000000e+00 0.000000e+00 2.286802e+04 # CA2-SC79 type=non-native eps=0.002390 sigma=3.817121
pair_coeff 3 154 0.000000e+00 0.000000e+00 4.009755e+04 # CA2-CA80 type=non-native eps=0.002390 sigma=4.000000
pair_coeff 3 155 0.000000e+00 0.000000e+00 6.317440e+04 # CA2-SC80 type=non-native eps=0.002390 sigma=4.154435
pair_coeff 3 156 0.000000e+00 0.000000e+00 4.009755e+04 # CA2-CA81 type=non-native eps=0.002390 sigma=4.000000
pair_coeff 3 157 0.000000e+00 0.000000e+00 4.009755e+04 # CA2-SC81 type=non-native eps=0.002390 sigma=4.000000
pair_coeff 3 158 0.000000e+00 0.000000e+00 4.009755e+04 # CA2-CA82 type=non-native eps=0.002390 sigma=4.000000
pair_coeff 3 159 0.000000e+00 0.000000e+00 2.286802e+04 # CA2-SC82 type=non-native eps=0.002390 sigma=3.817121
pair_coeff 3 160 0.000000e+00 0.000000e+00 4.009755e+04 # CA2-CA83 type=non-native eps=0.002390 sigma=4.000000
pair_coeff 3 161 0.000000e+00 0.000000e+00 4.009755e+04 # CA2-CA84 type=non-native eps=0.002390 sigma=4.000000
pair_coeff 3 162 0.000000e+00 0.000000e+00 1.293687e+05 # CA2-SC84 type=non-native eps=0.002390 sigma=4.410142
pair_coeff 3 163 0.000000e+00 0.000000e+00 4.009755e+04 # CA2-CA85 type=non-native eps=0.002390 sigma=4.000000
pair_coeff 3 164 0.000000e+00 0.000000e+00 6.317440e+04 # CA2-SC85 type=non-native eps=0.002390 sigma=4.154435
pair_coeff 3 165 0.000000e+00 0.000000e+00 4.009755e+04 # CA2-CA86 type=non-native eps=0.002390 sigma=4.000000
pair_coeff 3 166 0.000000e+00 0.000000e+00 1.085818e+04 # CA2-SC86 type=non-native eps=0.002390 sigma=3.587401
pair_coeff 3 167 0.000000e+00 0.000000e+00 4.009755e+04 # CA2-CA87 type=non-native eps=0.002390 sigma=4.000000
pair_coeff 3 168 0.000000e+00 0.000000e+00 1.293687e+05 # CA2-SC87 type=non-native eps=0.002390 sigma=4.410142
pair_coeff 3 169 0.000000e+00 0.000000e+00 4.009755e+04 # CA2-CA88 type=non-native eps=0.002390 sigma=4.000000
pair_coeff 3 170 0.000000e+00 0.000000e+00 6.317440e+04 # CA2-SC88 type=non-native eps=0.002390 sigma=4.154435
pair_coeff 3 171 0.000000e+00 0.000000e+00 4.009755e+04 # CA2-CA89 type=non-native eps=0.002390 sigma=4.000000
pair_coeff 3 172 0.000000e+00 0.000000e+00 4.009755e+04 # CA2-SC89 type=non-native eps=0.002390 sigma=4.000000
pair_coeff 3 173 0.000000e+00 0.000000e+00 4.009755e+04 # CA2-CA90 type=non-native eps=0.002390 sigma=4.000000
pair_coeff 3 174 0.000000e+00 0.000000e+00 4.009755e+04 # CA2-SC90 type=non-native eps=0.002390 sigma=4.000000
pair_coeff 3 175 0.000000e+00 0.000000e+00 4.009755e+04 # CA2-CA91 type=non-native eps=0.002390 sigma=4.000000
pair_coeff 3 176 0.000000e+00 0.000000e+00 4.009755e+04 # CA2-SC91 type=non-native eps=0.002390 sigma=4.000000
pair_coeff 3 177 0.000000e+00 0.000000e+00 4.009755e+04 # CA2-CA92 type=non-native eps=0.002390 sigma=4.000000
pair_coeff 3 178 0.000000e+00 0.000000e+00 4.009755e+04 # CA2-SC92 type=non-native eps=0.002390 sigma=4.000000
pair_coeff 3 179 0.000000e+00 0.000000e+00 4.009755e+04 # CA2-CA93 type=non-native eps=0.002390 sigma=4.000000
pair_coeff 3 180 0.000000e+00 0.000000e+00 4.009755e+04 # CA2-SC93 type=non-native eps=0.002390 sigma=4.000000
pair_coeff 3 181 0.000000e+00 0.000000e+00 4.009755e+04 # CA2-CA94 type=non-native eps=0.002390 sigma=4.000000
pair_coeff 3 182 0.000000e+00 0.000000e+00 4.009755e+04 # CA2-SC94 type=non-native eps=0.002390 sigma=4.000000
pair_coeff 3 183 0.000000e+00 0.000000e+00 4.009755e+04 # CA2-CA95 type=non-native eps=0.002390 sigma=4.000000
pair_coeff 3 184 0.000000e+00 0.000000e+00 4.009755e+04 # CA2-CA96 type=non-native eps=0.002390 sigma=4.000000
pair_coeff 3 185 0.000000e+00 0.000000e+00 2.264320e+05 # CA2-SC96 type=non-native eps=0.002390 sigma=4.620741
pair_coeff 4 4 0.000000e+00 0.000000e+00 4.009755e+04 # SC2-SC2 type=non-native eps=0.002390 sigma=4.000000
pair_coeff 4 5 0.000000e+00 0.000000e+00 4.009755e+04 # SC2-CA3 type=non-native eps=0.002390 sigma=4.000000
pair_coeff 4 6 0.000000e+00 0.000000e+00 4.009755e+04 # SC2-SC3 type=non-native eps=0.002390 sigma=4.000000
pair_coeff 4 7 0.000000e+00 0.000000e+00 4.009755e+04 # SC2-CA4 type=non-native eps=0.002390 sigma=4.000000
pair_coeff 4 8 0.000000e+00 0.000000e+00 4.009755e+04 # SC2-SC4 type=non-native eps=0.002390 sigma=4.000000
pair_coeff 4 9 0.000000e+00 0.000000e+00 4.009755e+04 # SC2-CA5 type=non-native eps=0.002390 sigma=4.000000
pair_coeff 4 10 0.000000e+00 0.000000e+00 4.009755e+04 # SC2-CA6 type=non-native eps=0.002390 sigma=4.000000
pair_coeff 4 11 0.000000e+00 0.000000e+00 4.009755e+04 # SC2-SC6 type=non-native eps=0.002390 sigma=4.000000
pair_coeff 4 12 0.000000e+00 0.000000e+00 4.009755e+04 # SC2-CA7 type=non-native eps=0.002390 sigma=4.000000
pair_coeff 4 13 0.000000e+00 0.000000e+00 4.009755e+04 # SC2-SC7 type=non-native eps=0.002390 sigma=4.000000
pair_coeff 4 14 0.000000e+00 0.000000e+00 4.009755e+04 # SC2-CA8 type=non-native eps=0.002390 sigma=4.000000
pair_coeff 4 15 0.000000e+00 0.000000e+00 4.009755e+04 # SC2-SC8 type=non-native eps=0.002390 sigma=4.000000
pair_coeff 4 16 0.000000e+00 0.000000e+00 4.009755e+04 # SC2-CA9 type=non-native eps=0.002390 sigma=4.000000
pair_coeff 4 17 0.000000e+00 0.000000e+00 6.317440e+04 # SC2-SC9 type=non-native eps=0.002390 sigma=4.154435
pair_coeff 4 18 0.000000e+00 0.000000e+00 4.009755e+04 # SC2-CA10 type=non-native eps=0.002390 sigma=4.000000
pair_coeff 4 19 0.000000e+00 0.000000e+00 4.009755e+04 # SC2-SC10 type=non-native eps=0.002390 sigma=4.000000
pair_coeff 4 20 0.000000e+00 0.000000e+00 4.009755e+04 # SC2-CA11 type=non-native eps=0.002390 sigma=4.000000
pair_coeff 4 21 0.000000e+00 0.000000e+00 6.317440e+04 # SC2-SC11 type=non-native eps=0.002390 sigma=4.154435
pair_coeff 4 22 0.000000e+00 0.000000e+00 4.009755e+04 # SC2-CA12 type=non-native eps=0.002390 sigma=4.000000
pair_coeff 4 23 0.000000e+00 0.000000e+00 4.009755e+04 # SC2-SC12 type=non-native eps=0.002390 sigma=4.000000
pair_coeff 4 24 0.000000e+00 0.000000e+00 4.009755e+04 # SC2-CA13 type=non-native eps=0.002390 sigma=4.000000
pair_coeff 4 25 0.000000e+00 0.000000e+00 6.317440e+04 # SC2-SC13 type=non-native eps=0.002390 sigma=4.154435
pair_coeff 4 26 0.000000e+00 0.000000e+00 4.009755e+04 # SC2-CA14 type=non-native eps=0.002390 sigma=4.000000
pair_coeff 4 27 0.000000e+00 0.000000e+00 4.009755e+04 # SC2-SC14 type=non-native eps=0.002390 sigma=4.000000
pair_coeff 4 28 0.000000e+00 0.000000e+00 4.009755e+04 # SC2-CA15 type=non-native eps=0.002390 sigma=4.000000
pair_coeff 4 29 0.000000e+00 0.000000e+00 2.286802e+04 # SC2-SC15 type=non-native eps=0.002390 sigma=3.817121
pair_coeff 4 30 0.000000e+00 0.000000e+00 4.009755e+04 # SC2-CA16 type=non-native eps=0.002390 sigma=4.000000
pair_coeff 4 31 0.000000e+00 0.000000e+00 2.286802e+04 # SC2-SC16 type=non-native eps=0.002390 sigma=3.817121
pair_coeff 4 32 0.000000e+00 0.000000e+00 4.009755e+04 # SC2-CA17 type=non-native eps=0.002390 sigma=4.000000
pair_coeff 4 33 0.000000e+00 0.000000e+00 4.009755e+04 # SC2-SC17 type=non-native eps=0.002390 sigma=4.000000
pair_coeff 4 34 0.000000e+00 0.000000e+00 4.009755e+04 # SC2-CA18 type=non-native eps=0.002390 sigma=4.000000
pair_coeff 4 35 0.000000e+00 0.000000e+00 4.009755e+04 # SC2-SC18 type=non-native eps=0.002390 sigma=4.000000
pair_coeff 4 36 0.000000e+00 0.000000e+00 4.009755e+04 # SC2-CA19 type=non-native eps=0.002390 sigma=4.000000
pair_coeff 4 37 0.000000e+00 0.000000e+00 4.009755e+04 # SC2-SC19 type=non-native eps=0.002390 sigma=4.000000
pair_coeff 4 38 0.000000e+00 0.000000e+00 4.009755e+04 # SC2-CA20 type=non-native eps=0.002390 sigma=4.000000
pair_coeff 4 39 0.000000e+00 0.000000e+00 4.009755e+04 # SC2-SC20 type=non-native eps=0.002390 sigma=4.000000
pair_coeff 4 40 0.000000e+00 0.000000e+00 4.009755e+04 # SC2-CA21 type=non-native eps=0.002390 sigma=4.000000
pair_coeff 4 41 0.000000e+00 0.000000e+00 1.293687e+05 # SC2-SC21 type=non-native eps=0.002390 sigma=4.410142
pair_coeff 4 42 0.000000e+00 0.000000e+00 4.009755e+04 # SC2-CA22 type=non-native eps=0.002390 sigma=4.000000
pair_coeff 4 43 0.000000e+00 0.000000e+00 4.009755e+04 # SC2-CA23 type=non-native eps=0.002390 sigma=4.000000
pair_coeff 4 44 0.000000e+00 0.000000e+00 6.317440e+04 # SC2-SC23 type=non-native eps=0.002390 sigma=4.154435
pair_coeff 4 45 0.000000e+00 0.000000e+00 4.009755e+04 # SC2-CA24 type=non-native eps=0.002390 sigma=4.000000
pair_coeff 4 46 0.000000e+00 0.000000e+00 6.317440e+04 # SC2-SC24 type=non-native eps=0.002390 sigma=4.154435
pair_coeff 4 47 0.000000e+00 0.000000e+00 4.009755e+04 # SC2-CA25 type=non-native eps=0.002390 sigma=4.000000
pair_coeff 4 48 -3.182892e+04 0.000000e+00 1.059707e+09 # SC2-SC25 type=native eps=0.239000 sigma=6.366474
pair_coeff 4 49 0.000000e+00 0.000000e+00 4.009755e+04 # SC2-CA26 type=non-native eps=0.002390 sigma=4.000000
pair_coeff 4 50 0.000000e+00 0.000000e+00 4.009755e+04 # SC2-SC26 type=non-native eps=0.002390 sigma=4.000000
pair_coeff 4 51 0.000000e+00 0.000000e+00 4.009755e+04 # SC2-CA27 type=non-native eps=0.002390 sigma=4.000000
pair_coeff 4 52 0.000000e+00 0.000000e+00 4.009755e+04 # SC2-SC27 type=non-native eps=0.002390 sigma=4.000000
pair_coeff 4 53 0.000000e+00 0.000000e+00 4.009755e+04 # SC2-CA28 type=non-native eps=0.002390 sigma=4.000000
pair_coeff 4 54 -3.575682e+04 0.000000e+00 1.337395e+09 # SC2-SC28 type=native eps=0.239000 sigma=6.491153
pair_coeff 4 55 0.000000e+00 0.000000e+00 4.009755e+04 # SC2-CA29 type=non-native eps=0.002390 sigma=4.000000
pair_coeff 4 56 -1.692983e+04 0.000000e+00 3.747637e+08 # SC2-SC29 type=native eps=0.191200 sigma=5.947792
pair_coeff 4 57 0.000000e+00 0.000000e+00 4.009755e+04 # SC2-CA30 type=non-native eps=0.002390 sigma=4.000000
pair_coeff 4 58 0.000000e+00 0.000000e+00 6.317440e+04 # SC2-SC30 type=non-native eps=0.002390 sigma=4.154435
pair_coeff 4 59 0.000000e+00 0.000000e+00 4.009755e+04 # SC2-CA31 type=non-native eps=0.002390 sigma=4.000000
pair_coeff 4 60 0.000000e+00 0.000000e+00 4.009755e+04 # SC2-SC31 type=non-native eps=0.002390 sigma=4.000000
pair_coeff 4 61 0.000000e+00 0.000000e+00 4.009755e+04 # SC2-CA32 type=non-native eps=0.002390 sigma=4.000000
pair_coeff 4 62 0.000000e+00 0.000000e+00 4.009755e+04 # SC2-SC32 type=non-native eps=0.002390 sigma=4.000000
pair_coeff 4 63 0.000000e+00 0.000000e+00 4.009755e+04 # SC2-CA33 type=non-native eps=0.002390 sigma=4.000000
pair_coeff 4 64 0.000000e+00 0.000000e+00 4.009755e+04 # SC2-SC33 type=non-native eps=0.002390 sigma=4.000000
pair_coeff 4 65 0.000000e+00 0.000000e+00 4.009755e+04 # SC2-CA34 type=non-native eps=0.002390 sigma=4.000000
pair_coeff 4 66 0.000000e+00 0.000000e+00 6.317440e+04 # SC2-SC34 type=non-native eps=0.002390 sigma=4.154435
pair_coeff 4 67 0.000000e+00 0.000000e+00 4.009755e+04 # SC2-CA35 type=non-native eps=0.002390 sigma=4.000000
pair_coeff 4 68 0.000000e+00 0.000000e+00 4.009755e+04 # SC2-SC35 type=non-native eps=0.002390 sigma=4.000000
pair_coeff 4 69 0.000000e+00 0.000000e+00 4.009755e+04 # SC2-CA36 type=non-native eps=0.002390 sigma=4.000000
pair_coeff 4 70 0.000000e+00 0.000000e+00 6.317440e+04 # SC2-SC36 type=non-native eps=0.002390 sigma=4.154435
pair_coeff 4 71 0.000000e+00 0.000000e+00 4.009755e+04 # SC2-CA37 type=non-native eps=0.002390 sigma=4.000000
pair_coeff 4 72 0.000000e+00 0.000000e+00 1.737309e+05 # SC2-SC37 type=non-native eps=0.002390 sigma=4.519842
pair_coeff 4 73 0.000000e+00 0.000000e+00 4.009755e+04 # SC2-CA38 type=non-native eps=0.002390 sigma=4.000000
pair_coeff 4 74 0.000000e+00 0.000000e+00 4.009755e+04 # SC2-CA39 type=non-native eps=0.002390 sigma=4.000000
pair_coeff 4 75 0.000000e+00 0.000000e+00 2.286802e+04 # SC2-SC39 type=non-native eps=0.002390 sigma=3.817121
pair_coeff 4 76 0.000000e+00 0.000000e+00 4.009755e+04 # SC2-CA40 type=non-native eps=0.002390 sigma=4.000000
pair_coeff 4 77 0.000000e+00 0.000000e+00 4.009755e+04 # SC2-SC40 type=non-native eps=0.002390 sigma=4.000000
pair_coeff 4 78 0.000000e+00 0.000000e+00 4.009755e+04 # SC2-CA41 type=non-native eps=0.002390 sigma=4.000000
pair_coeff 4 79 0.000000e+00 0.000000e+00 2.286802e+04 # SC2-SC41 type=non-native eps=0.002390 sigma=3.817121
pair_coeff 4 80 0.000000e+00 0.000000e+00 4.009755e+04 # SC2-CA42 type=non-native eps=0.002390 sigma=4.000000
pair_coeff 4 81 0.000000e+00 0.000000e+00 6.317440e+04 # SC2-SC42 type=non-native eps=0.002390 sigma=4.154435
pair_coeff 4 82 0.000000e+00 0.000000e+00 4.009755e+04 # SC2-CA43 type=non-native eps=0.002390 sigma=4.000000
pair_coeff 4 83 0.000000e+00 0.000000e+00 4.009755e+04 # SC2-SC43 type=non-native eps=0.002390 sigma=4.000000
pair_coeff 4 84 0.000000e+00 0.000000e+00 4.009755e+04 # SC2-CA44 type=non-native eps=0.002390 sigma=4.000000
pair_coeff 4 85 0.000000e+00 0.000000e+00 4.009755e+04 # SC2-SC44 type=non-native eps=0.002390 sigma=4.000000
pair_coeff 4 86 0.000000e+00 0.000000e+00 4.009755e+04 # SC2-CA45 type=non-native eps=0.002390 sigma=4.000000
pair_coeff 4 87 0.000000e+00 0.000000e+00 6.317440e+04 # SC2-SC45 type=non-native eps=0.002390 sigma=4.154435
pair_coeff 4 88 0.000000e+00 0.000000e+00 4.009755e+04 # SC2-CA46 type=non-native eps=0.002390 sigma=4.000000
pair_coeff 4 89 0.000000e+00 0.000000e+00 4.009755e+04 # SC2-SC46 type=non-native eps=0.002390 sigma=4.000000
pair_coeff 4 90 0.000000e+00 0.000000e+00 4.009755e+04 # SC2-CA47 type=non-native eps=0.002390 sigma=4.000000
pair_coeff 4 91 0.000000e+00 0.000000e+00 4.009755e+04 # SC2-SC47 type=non-native eps=0.002390 sigma=4.000000
pair_coeff 4 92 0.000000e+00 0.000000e+00 4.009755e+04 # SC2-CA48 type=non-native eps=0.002390 sigma=4.000000
pair_coeff 4 93 0.000000e+00 0.000000e+00 6.317440e+04 # SC2-SC48 type=non-native eps=0.002390 sigma=4.154435
pair_coeff 4 94 0.000000e+00 0.000000e+00 4.009755e+04 # SC2-CA49 type=non-native eps=0.002390 sigma=4.000000
pair_coeff 4 95 0.000000e+00 0.000000e+00 2.286802e+04 # SC2-SC49 type=non-native eps=0.002390 sigma=3.817121
pair_coeff 4 96 0.000000e+00 0.000000e+00 4.009755e+04 # SC2-CA50 type=non-native eps=0.002390 sigma=4.000000
pair_coeff 4 97 0.000000e+00 0.000000e+00 1.085818e+04 # SC2-SC50 type=non-native eps=0.002390 sigma=3.587401
pair_coeff 4 98 0.000000e+00 0.000000e+00 4.009755e+04 # SC2-CA51 type=non-native eps=0.002390 sigma=4.000000
pair_coeff 4 99 0.000000e+00 0.000000e+00 6.317440e+04 # SC2-SC51 type=non-native eps=0.002390 sigma=4.154435
pair_coeff 4 100 0.000000e+00 0.000000e+00 4.009755e+04 # SC2-CA52 type=non-native eps=0.002390 sigma=4.000000
pair_coeff 4 101 0.000000e+00 0.000000e+00 4.009755e+04 # SC2-SC52 type=non-native eps=0.002390 sigma=4.000000
pair_coeff 4 102 0.000000e+00 0.000000e+00 4.009755e+04 # SC2-CA53 type=non-native eps=0.002390 sigma=4.000000
pair_coeff 4 103 0.000000e+00 0.000000e+00 6.317440e+04 # SC2-SC53 type=non-native eps=0.002390 sigma=4.154435
pair_coeff 4 104 0.000000e+00 0.000000e+00 4.009755e+04 # SC2-CA54 type=non-native eps=0.002390 sigma=4.000000
pair_coeff 4 105 0.000000e+00 0.000000e+00 1.293687e+05 # SC2-SC54 type=non-native eps=0.002390 sigma=4.410142
pair_coeff 4 106 0.000000e+00 0.000000e+00 4.009755e+04 # SC2-CA55 type=non-native eps=0.002390 sigma=4.000000
pair_coeff 4 107 0.000000e+00 0.000000e+00 1.293687e+05 # SC2-SC55 type=non-native eps=0.002390 sigma=4.410142
pair_coeff 4 108 0.000000e+00 0.000000e+00 4.009755e+04 # SC2-CA56 type=non-native eps=0.002390 sigma=4.000000
pair_coeff 4 109 -4.751890e+03 0.000000e+00 3.936621e+07 # SC2-SC56 type=native eps=0.143400 sigma=5.049107
pair_coeff 4 110 0.000000e+00 0.000000e+00 4.009755e+04 # SC2-CA57 type=non-native eps=0.002390 sigma=4.000000
pair_coeff 4 111 0.000000e+00 0.000000e+00 1.737309e+05 # SC2-SC57 type=non-native eps=0.002390 sigma=4.519842
pair_coeff 4 112 0.000000e+00 0.000000e+00 4.009755e+04 # SC2-CA58 type=non-native eps=0.002390 sigma=4.000000
pair_coeff 4 113 0.000000e+00 0.000000e+00 2.286802e+04 # SC2-SC58 type=non-native eps=0.002390 sigma=3.817121
pair_coeff 4 114 0.000000e+00 0.000000e+00 4.009755e+04 # SC2-CA59 type=non-native eps=0.002390 sigma=4.000000
pair_coeff 4 115 0.000000e+00 0.000000e+00 1.085818e+04 # SC2-SC59 type=non-native eps=0.002390 sigma=3.587401
pair_coeff 4 116 0.000000e+00 0.000000e+00 4.009755e+04 # SC2-CA60 type=non-native eps=0.002390 sigma=4.000000
pair_coeff 4 117 0.000000e+00 0.000000e+00 2.286802e+04 # SC2-SC60 type=non-native eps=0.002390 sigma=3.817121
pair_coeff 4 118 0.000000e+00 0.000000e+00 4.009755e+04 # SC2-CA61 type=non-native eps=0.002390 sigma=4.000000
pair_coeff 4 119 0.000000e+00 0.000000e+00 4.009755e+04 # SC2-SC61 type=non-native eps=0.002390 sigma=4.000000
pair_coeff 4 120 0.000000e+00 0.000000e+00 4.009755e+04 # SC2-CA62 type=non-native eps=0.002390 sigma=4.000000
pair_coeff 4 121 0.000000e+00 0.000000e+00 3.442571e+03 # SC2-SC62 type=non-native eps=0.002390 sigma=3.259921
pair_coeff 4 122 0.000000e+00 0.000000e+00 4.009755e+04 # SC2-CA63 type=non-native eps=0.002390 sigma=4.000000
pair_coeff 4 123 0.000000e+00 0.000000e+00 4.009755e+04 # SC2-CA64 type=non-native eps=0.002390 sigma=4.000000
pair_coeff 4 124 0.000000e+00 0.000000e+00 4.009755e+04 # SC2-SC64 type=non-native eps=0.002390 sigma=4.000000
pair_coeff 4 125 0.000000e+00 0.000000e+00 4.009755e+04 # SC2-CA65 type=non-native eps=0.002390 sigma=4.000000
pair_coeff 4 126 0.000000e+00 0.000000e+00 4.009755e+04 # SC2-CA66 type=non-native eps=0.002390 sigma=4.000000
pair_coeff 4 127 0.000000e+00 0.000000e+00 6.317440e+04 # SC2-SC66 type=non-native eps=0.002390 sigma=4.154435
pair_coeff 4 128 0.000000e+00 0.000000e+00 4.009755e+04 # SC2-CA67 type=non-native eps=0.002390 sigma=4.000000
pair_coeff 4 129 0.000000e+00 0.000000e+00 6.317440e+04 # SC2-SC67 type=non-native eps=0.002390 sigma=4.154435
pair_coeff 4 130 0.000000e+00 0.000000e+00 4.009755e+04 # SC2-CA68 type=non-native eps=0.002390 sigma=4.000000
pair_coeff 4 131 0.000000e+00 0.000000e+00 1.085818e+04 # SC2-SC68 type=non-native eps=0.002390 sigma=3.587401
pair_coeff 4 132 0.000000e+00 0.000000e+00 4.009755e+04 # SC2-CA69 type=non-native eps=0.002390 sigma=4.000000
pair_coeff 4 133 0.000000e+00 0.000000e+00 6.317440e+04 # SC2-SC69 type=non-native eps=0.002390 sigma=4.154435
pair_coeff 4 134 0.000000e+00 0.000000e+00 4.009755e+04 # SC2-CA70 type=non-native eps=0.002390 sigma=4.000000
pair_coeff 4 135 0.000000e+00 0.000000e+00 1.293687e+05 # SC2-SC70 type=non-native eps=0.002390 sigma=4.410142
pair_coeff 4 136 0.000000e+00 0.000000e+00 4.009755e+04 # SC2-CA71 type=non-native eps=0.002390 sigma=4.000000
pair_coeff 4 137 0.000000e+00 0.000000e+00 6.317440e+04 # SC2-SC71 type=non-native eps=0.002390 sigma=4.154435
pair_coeff 4 138 -3.561608e+04 0.000000e+00 3.980664e+09 # SC2-CA72 type=native eps=0.079667 sigma=7.790343
pair_coeff 4 139 -2.680973e+04 0.000000e+00 1.127764e+09 # SC2-SC72 type=native eps=0.159333 sigma=6.619512
pair_coeff 4 140 -1.548521e+05 0.000000e+00 2.508282e+10 # SC2-CA73 type=native eps=0.239000 sigma=8.287335
pair_coeff 4 141 0.000000e+00 0.000000e+00 1.293687e+05 # SC2-SC73 type=non-native eps=0.002390 sigma=4.410142
pair_coeff 4 142 -2.493657e+03 0.000000e+00 3.252261e+07 # SC2-CA74 type=native eps=0.047800 sigma=5.445818
pair_coeff 4 143 -7.943021e+03 0.000000e+00 1.649885e+08 # SC2-SC74 type=native eps=0.095600 sigma=5.885043
pair_coeff 4 144 -8.751311e+03 0.000000e+00 3.204412e+08 # SC2-CA75 type=native eps=0.059750 sigma=6.468211
pair_coeff 4 145 -1.563284e+04 0.000000e+00 1.022534e+09 # SC2-SC75 type=native eps=0.059750 sigma=7.124892
pair_coeff 4 146 0.000000e+00 0.000000e+00 4.009755e+04 # SC2-CA76 type=non-native eps=0.002390 sigma=4.000000
pair_coeff 4 147 0.000000e+00 0.000000e+00 2.286802e+04 # SC2-SC76 type=non-native eps=0.002390 sigma=3.817121
pair_coeff 4 148 0.000000e+00 0.000000e+00 4.009755e+04 # SC2-CA77 type=non-native eps=0.002390 sigma=4.000000
pair_coeff 4 149 0.000000e+00 0.000000e+00 4.009755e+04 # SC2-SC77 type=non-native eps=0.002390 sigma=4.000000
pair_coeff 4 150 0.000000e+00 0.000000e+00 4.009755e+04 # SC2-CA78 type=non-native eps=0.002390 sigma=4.000000
pair_coeff 4 151 0.000000e+00 0.000000e+00 2.286802e+04 # SC2-SC78 type=non-native eps=0.002390 sigma=3.817121
pair_coeff 4 152 0.000000e+00 0.000000e+00 4.009755e+04 # SC2-CA79 type=non-native eps=0.002390 sigma=4.000000
pair_coeff 4 153 0.000000e+00 0.000000e+00 2.286802e+04 # SC2-SC79 type=non-native eps=0.002390 sigma=3.817121
pair_coeff 4 154 0.000000e+00 0.000000e+00 4.009755e+04 # SC2-CA80 type=non-native eps=0.002390 sigma=4.000000
pair_coeff 4 155 0.000000e+00 0.000000e+00 6.317440e+04 # SC2-SC80 type=non-native eps=0.002390 sigma=4.154435
pair_coeff 4 156 0.000000e+00 0.000000e+00 4.009755e+04 # SC2-CA81 type=non-native eps=0.002390 sigma=4.000000
pair_coeff 4 157 0.000000e+00 0.000000e+00 4.009755e+04 # SC2-SC81 type=non-native eps=0.002390 sigma=4.000000
pair_coeff 4 158 0.000000e+00 0.000000e+00 4.009755e+04 # SC2-CA82 type=non-native eps=0.002390 sigma=4.000000
pair_coeff 4 159 0.000000e+00 0.000000e+00 2.286802e+04 # SC2-SC82 type=non-native eps=0.002390 sigma=3.817121
pair_coeff 4 160 0.000000e+00 0.000000e+00 4.009755e+04 # SC2-CA83 type=non-native eps=0.002390 sigma=4.000000
pair_coeff 4 161 0.000000e+00 0.000000e+00 4.009755e+04 # SC2-CA84 type=non-native eps=0.002390 sigma=4.000000
[...]
 4788000    125.51643     14.35435   -37.115792    20.761446    19.814777    10.893918 
 4789000    126.66724    19.995218   -37.203955    20.743927    22.865663    13.589584 
 4790000    117.45113    11.081721   -39.737141     18.22032     22.89463    9.7039127 
 4791000    116.32293    8.1538983    -38.56153    17.221013    21.285757    8.2086574 
 4792000    113.84587    13.259048   -37.827934    19.088841    20.871391     11.12675 
 4793000    116.93211    15.907374   -38.384369     18.81605    24.380364     11.09533 
 4794000    108.99031    16.104233   -39.323202     18.61435      24.7956    12.017485 
 4795000    103.23374    14.432552   -39.289124    21.333102    23.098293    9.2902815 
 4796000    106.12537    8.6031479    -39.33347    17.549916    21.094328    9.2923738 
 4797000    107.22823    12.324335   -36.826165    20.180776    19.842156     9.127569 
 4798000    110.72007    15.585418   -37.244565    20.465146    22.160935    10.203903 
 4799000    119.02233    20.798444   -37.644859    20.653274    25.338297    12.451732 
 4800000    124.25415    20.382227   -38.189256    21.499953    25.850564    11.220966 
 4801000    121.89258    25.718769   -35.400144    22.099587    26.679202    12.340124 
 4802000    124.15296    23.256489   -36.924664     19.86649    27.323019    12.991644 
 4803000    118.86063     17.75163   -35.670783    20.318378    22.998477    10.105558 
 4804000    121.57658    14.151735   -38.357178    20.411023    20.853034    11.244856 
 4805000    120.46626    9.9060764   -39.064093    18.741667    19.231316    10.997186 
 4806000    115.27343    15.497453     -38.3901    23.302941    21.065899    9.5187123 
 4807000    110.91077    17.989589   -37.681885    23.855679    21.171521    10.644274 
 4808000      114.478    17.821819   -38.279019    19.571225    26.073851    10.455761 
 4809000    119.85428    15.414655   -37.725388    21.831418    22.369918    8.9387074 
 4810000    110.80651    18.935176   -37.517473    22.298905    23.181703     10.97204 
 4811000    118.02215    17.449355   -39.290047    26.113263    20.516823    10.109316 
 4812000    116.73924    17.060513   -37.533089    23.694388    19.375771    11.523443 
 4813000    108.17932    21.114274   -36.755777    25.474393    21.719497    10.676161 
 4814000    109.01565    26.687222   -35.954008    23.472734    27.259321    11.909175 
 4815000    113.74817    18.418362   -39.113087    20.734341     25.05768    11.739428 
 4816000    115.99369    16.405658   -37.968667    22.535087    22.103444    9.7357949 
 4817000    106.79019    12.351298   -38.253773    18.483193    20.757513    11.364366 
 4818000    103.27381     12.64027   -37.410474    17.140306    21.711458    11.198981 
 4819000    107.11169    16.602516   -39.057595    19.608331     26.17925    9.8725311 
 4820000    98.677335    13.333394   -41.082889    23.112703    20.964069     10.33951 
 4821000    103.83685    11.898202    -41.38357     24.70311    20.610541    7.9681212 
 4822000    111.98236    4.4380963   -45.376803    20.311168    21.272782      8.23095 
 4823000    99.171147    10.318477   -40.326441    21.719841    20.234771    8.6903049 
 4824000    98.232313    2.7357787   -43.644893    17.879946    21.998107    6.5026176 
 4825000     107.5841    3.5619978   -43.465813    20.325585    19.799579    6.9026465 
 4826000     113.9225    12.713891   -39.478834    22.467697    20.311386    9.4136418 
 4827000    104.60236    11.636257   -40.053413    19.292607    22.941114    9.4559487 
 4828000    102.86326    10.408285   -39.214319    18.531934    24.149241    6.9414291 
 4829000    108.22302    9.8770198   -39.401404    18.011558    20.408679    10.858188 
 4830000    106.05319    4.2004654    -39.02019    17.947982    17.103406    8.1692665 
 4831000    106.52007    5.7761054    -41.24936     20.10307    18.129081    8.7933144 
 4832000    110.89438    7.0659388   -40.800504    23.604744    17.403613    6.8580868 
 4833000    108.61828    9.2285771   -39.462252    20.203913    19.835149    8.6517676 
 4834000    108.60767    9.7034249   -39.991774    18.783312    21.603762    9.3081253 
 4835000    108.45611    11.098449   -41.732494    20.738367    23.477706    8.6148701 
 4836000    109.96347    9.8000275   -41.494856    20.204166    22.232212    8.8585059 
 4837000    108.76899    8.6775293    -41.16894    20.775627    18.830989    10.239853 
 4838000    121.36789    9.7326381   -41.772048    22.515542    19.289684    9.6994603 
 4839000    114.45311    13.579314   -40.210422    20.875366    24.387202    8.5271683 
 4840000     113.2202    11.441037   -38.702041    19.771617    21.045742    9.3257199 
 4841000    119.00008    9.4418651   -37.507471     18.17235    20.794229    7.9827572 
 4842000    105.35738    18.278933   -37.670569     21.97697    23.529583    10.442949 
 4843000    109.60792     14.70296    -38.98177    23.173794     20.11688    10.394057 
 4844000    118.58599    13.337908   -37.520204    20.162218    21.902819    8.7930756 
 4845000    115.72373    20.997233   -36.373637    22.324104    23.119904    11.926861 
 4846000    114.19044     20.37605   -36.595227    20.692606    26.770659    9.5080123 
 4847000    121.26355    11.605415    -39.53686    22.081424    19.651212    9.4096392 
 4848000    119.91044    16.107959    -38.76976    21.721946    22.929895    10.225878 
 4849000    112.52315    22.154506   -41.784729    23.528662    28.376084    12.034489 
 4850000    107.87505    19.649848   -37.523868    26.727632    20.031619    10.414465 
 4851000    117.95411    17.089081   -40.236213    21.912038    26.644857    8.7683991 
 4852000    107.22093     13.51798   -38.374739    19.425021    22.804946    9.6627516 
 4853000    111.96989    15.475346   -39.450506    23.444387    20.786521    10.694943 
 4854000    111.49469    12.950823   -40.525124    23.267227    20.240956    9.9677634 
 4855000    122.12165    12.111187   -39.047457    23.838506    17.592687    9.7274506 
 4856000    104.74697    15.081814   -40.120511    21.841996    22.801886    10.558443 
 4857000    108.59845    8.7682787   -42.517957    23.146841    19.342958    8.7964374 
 4858000    91.735905      11.8377   -38.355156    19.819824    20.829412    9.5436196 
 4859000    98.227368    11.206914   -40.439582    23.689834    18.376674    9.5799876 
 4860000     111.0913    8.0094559   -40.940775    18.843195    22.717479    7.3895568 
 4861000    113.79997    4.4737798   -42.420469    19.066244    20.851383    6.9766223 
 4862000    115.95447    5.7526369   -42.809318    22.070775    19.797643     6.693537 
 4863000    115.38038    6.4761853   -40.674363    17.331557    19.129461    10.689531 
 4864000    99.471599       7.3186   -41.987307    20.400361    19.057496    9.8480493 
 4865000    109.02348    8.4280767   -39.576929    21.766842    17.174223      9.06394 
 4866000    98.278679     15.42951   -37.503185    21.868561     22.25774    8.8063941 
 4867000    108.72162    8.5884975   -37.443767    18.421799    17.671319    9.9391458 
 4868000    118.32655    12.210552   -38.495853    21.572382    19.576141    9.5578831 
 4869000    118.12164    15.496821   -39.655483    22.859658    23.574618    8.7180285 
 4870000    110.03462     19.14095   -37.122373    25.140517    21.081981    10.040826 
 4871000    120.53144    17.782703   -39.755652    22.804726    25.368387    9.3652429 
 4872000    119.17271     13.66394   -39.355387    18.833054    24.690747    9.4955259 
 4873000     115.8345    12.739828   -37.671029    17.121442    24.268171    9.0212447 
 4874000    115.81058    5.6757973   -42.042682    15.955108    21.462969    10.300401 
 4875000    115.61176    12.333552   -40.194542    18.249487    22.838984    11.439623 
 4876000    107.80118    16.662223   -38.666214    22.158777    22.416274    10.753386 
 4877000    116.85451    15.500445    -40.64956    23.724465    22.501797    9.9237425 
 4878000    115.41466     9.060911   -42.981589    23.107875    20.014693    8.9199328 
 4879000    117.90868    7.5429042   -40.657513    22.639393    19.186167    6.3748575 
 4880000    109.97846    15.242139   -39.577967    22.188105     22.30772    10.324282 
 4881000    112.09906      10.9305   -40.790464     21.66379    20.313967    9.7432074 
 4882000    120.20679    12.688703   -40.825639    20.779563    24.008543    8.7262355 
 4883000    115.05983    13.835909   -39.265254    22.331279    21.339525    9.4303584 
 4884000    122.77226    11.237395   -39.358515    21.475056    19.846977    9.2738776 
 4885000    110.78989    12.247423   -37.254917    17.868246    22.462494    9.1716008 
 4886000    110.89659    7.5835469    -38.67318    18.388029    20.164944    7.7037543 
 4887000    106.85583    9.1613163    -39.87206    18.783832     21.68344    8.5661053 
 4888000    102.58482    8.0495376   -38.410467    19.020458     20.28934     7.150207 
 4889000    102.27986    11.956003   -39.918131    22.690312    19.514046    9.6697754 
 4890000    104.91881    12.215094   -37.542411    18.307818    21.704876    9.7448103 
 4891000    100.52803    13.684039   -41.332979    21.790873    23.667702    9.5584435 
 4892000    103.14196     7.298854   -41.719755    21.516537    19.531762    7.9703096 
 4893000    108.92112    15.903229    -39.87514    23.123068    21.997467    10.657834 
 4894000    100.90007    13.845603   -36.984636    21.900875    19.815546    9.1138182 
 4895000     111.6987    5.9203297   -40.345413    17.918538    20.615027    7.7321777 
 4896000    111.74177    10.513822   -39.952315    19.928479    21.163166    9.3744918 
 4897000    111.22312    13.594379   -39.759303    19.739075    23.650301    9.9643064 
 4898000    114.55767    13.757542   -40.363462     23.69108    20.915812    9.5141119 
 4899000    109.46831    14.712839   -36.123455    20.809714    20.957588    9.0689922 
 4900000    120.57647    8.8393098   -39.205778    16.484911    21.972123    9.5880538 
 4901000    105.22752    11.911147   -38.115888     20.56602    20.072421    9.3885936 
 4902000    112.48982    9.6675374   -38.306006    17.881999    22.015526    8.0760183 
 4903000    107.48559    15.793134   -38.776812     20.50334     25.65975    8.4068556 
 4904000    123.79236    13.923487   -40.821272    23.217588     22.26375    9.2634209 
 4905000    108.91625    15.426532   -41.083862    21.629459    23.246981    11.633953 
 4906000    110.50698    9.2911386   -38.983633    19.208224    20.186647    8.8799002 
 4907000    101.83192    10.315756   -40.639362    19.514784    20.994091    10.446244 
 4908000    105.88102    5.5712723   -41.471266    19.158941    18.995251    8.8883457 
 4909000    114.23734    5.2125806   -42.352808    18.016286    21.615242    7.9338611 
 4910000    102.56564     7.838691   -40.572156     20.49364    19.093774    8.8234331 
 4911000    108.33367    7.0201533   -45.265864    23.379504    22.334673    6.5718408 
 4912000    108.87471    11.662807   -41.019185    22.349584    21.004843    9.3275653 
 4913000    106.89781    13.040662   -38.502883    20.091042    21.964168    9.4883347 
 4914000    116.49789    16.346793   -38.223878    25.491892    20.542874    8.5359064 
 4915000    115.49341    10.213585   -37.556125    18.861593    17.997916    10.910202 
 4916000    114.99837    11.726213   -39.577618    20.515959    22.421134    8.3667379 
 4917000    100.75722     21.01645   -37.036117    23.043074    24.969341    10.040152 
 4918000    109.40789    12.682765   -39.123682    22.151735     17.95678    11.697931 
 4919000    110.94905    14.493866   -39.553636    22.039947    21.432565    10.574989 
 4920000    107.82878    11.166019   -39.539784    21.534637    19.507996    9.6631704 
 4921000    122.94665    7.6537527    -41.44465    19.001611    19.949275    10.147516 
 4922000    104.76187    12.575113   -37.852261    22.050001    19.037083    9.3402906 
 4923000    110.73887     13.14745   -39.931281    23.597663    22.148187      7.33288 
 4924000    108.59597    9.1284658   -40.009263    18.394301    23.358311    7.3851162 
 4925000    111.13642    9.5435533    -43.14421    24.385498    20.021874    8.2803921 
 4926000    106.76812    11.138487   -40.338995    20.743057    22.768709    7.9657159 
 4927000      110.878    14.040967   -39.717543    22.815233    21.753051    9.1902272 
 4928000    112.07278    10.883568   -41.134844    22.446959    23.088327    6.4831261 
 4929000    123.12119    14.035546   -40.215797     22.82126    21.632639     9.797444 
 4930000    115.47214    15.014966   -40.428034    24.391468    22.180658    8.8708736 
 4931000    111.11649    15.338878   -39.042739    22.696761    22.975208    8.7096468 
 4932000    116.54618    14.821048   -38.846317    22.159432    22.153122    9.3548118 
 4933000    115.84755    15.749772   -37.973571     18.49955    25.249812    9.9739809 
 4934000    118.27537    15.439911   -37.354547     21.66407    23.029752    8.1006355 
 4935000    115.45108    15.299152   -38.141625     21.44671    21.997432    9.9966351 
 4936000    119.54199    14.497024   -38.981626    22.308613    22.364399    8.8056383 
 4937000    115.53455    13.145181   -37.813859    18.082844    21.547163    11.329033 
 4938000    114.04929    16.364512   -37.851297    21.876475    21.486789    10.852545 
 4939000    117.82042    16.380413   -36.630148     19.11243    24.099653    9.7984774 
 4940000    119.08389    12.714824   -38.753905    19.938884    22.021229    9.5086165 
 4941000    111.74686     6.630804   -41.258568     19.07723    20.848693     7.963449 
 4942000    109.54332    15.515284   -37.442481    21.139235    22.501593    9.3169354 
 4943000    109.32136    13.878446   -40.834161    22.021659     23.44276    9.2481875 
 4944000    120.76479     9.956873   -38.783798    20.572981    18.642776    9.5249132 
 4945000    114.10019    10.817602   -40.290289    22.373784    20.417714     8.316393 
 4946000    102.70437    8.6440213   -40.345321    20.239564    19.971928    8.7778502 
 4947000    104.10144    7.4349313   -42.001942    21.121889    20.187136    8.1278496 
 4948000    111.52995    0.9709439   -41.444117    19.016068    17.515432    5.8835604 
 4949000    102.23321    4.7256969   -41.851935    18.966101    17.847411    9.7641211 
 4950000     105.4031    7.5217616   -38.938729    20.330142    18.842452    7.2878967 
 4951000    103.84599     5.027395   -39.409764      17.0476    20.391789    6.9977695 
 4952000    106.39545    9.0263421   -39.504722    19.449229    19.894527     9.187308 
 4953000    108.08427    8.7660593   -39.749727    19.052668    19.965044    9.4980734 
 4954000    111.56613    6.5180079   -40.002414    18.498651    19.265167    8.7566035 
 4955000    93.809077    11.153452   -38.593393    20.978839     20.60075    8.1672561 
 4956000     111.8728    11.912489   -37.843365    20.643936    19.870856    9.2410614 
 4957000    98.986894    13.842877   -38.885647    22.122763    21.638212    8.9675496 
 4958000    103.11073    12.769848   -35.826764    17.883293    22.409542    8.3037771 
 4959000    116.45183    10.177493   -41.808119    18.592113    25.839539    7.5539602 
 4960000    106.62232    14.165971    -39.52932    20.034216    22.311969    11.349106 
 4961000    108.82755    13.300454   -40.047548    20.884102    22.544415    9.9194865 
 4962000    114.13203    8.2480951    -41.53092    17.955352    20.698837    11.124826 
 4963000    105.74579    13.795284   -38.182556    19.194416    21.414825      11.3686 
 4964000    110.86322    11.270643   -37.900447    17.541221    21.723048     9.906822 
 4965000    118.62019    13.429379   -40.732202    18.454218    25.502303    10.205059 
 4966000    112.56666    17.737865   -39.713606    21.086801    24.709982    11.654689 
 4967000    111.83451    14.212016   -40.371879    23.106701     22.62608    8.8511138 
 4968000    108.00002    14.573088   -39.618906    20.428481    23.551141    10.212372 
 4969000    113.42784    7.9259565   -41.963989    19.142016    22.395547    8.3523832 
 4970000    110.61319    11.262298   -39.803221     19.10971    23.681182    8.2746262 
 4971000    111.93332    7.7975779   -40.200201     17.30414    20.801923    9.8917158 
 4972000    108.38051    18.524518   -38.091876    22.040593    22.676996    11.898804 
 4973000    111.75093    10.543171   -36.620743      21.3278    17.679247    8.1568667 
 4974000    102.92311    11.350152   -40.602095    22.407407    21.332077    8.2127634 
 4975000    108.96366    14.105106   -40.051985    22.178016    22.076849    9.9022254 
 4976000    113.60721    11.321962   -40.197841    20.517598     20.13559    10.866614 
 4977000    109.33269    8.3877875    -39.60311    18.398174    20.676415    8.9163087 
 4978000    106.37293    8.6238059   -42.245066    21.227021    20.868661    8.7731904 
 4979000     110.4523    11.590156   -40.539057    22.213933     21.33645    8.5788313 
 4980000    120.49253    5.7214906   -43.799563    23.240761    18.980945    7.2993474 
 4981000    114.99234     12.16331   -42.835088     21.09369     25.63869    8.2660166 
 4982000    113.33742    1.9890002   -42.654369    19.663072    18.524126    6.4561712 
 4983000    109.31256    6.5293286   -40.766505     19.74348    19.506293    8.0460615 
 4984000    103.51005    21.285083   -37.671624      26.0784    22.751678    10.126629 
 4985000    122.14268     9.784259   -39.848801    21.249064    20.005809    8.3781872 
 4986000    122.09218    9.8376951   -40.788046    19.997519    21.235647    9.3925753 
 4987000    101.77106    10.478994   -39.655338    21.652554    19.839694    8.6420842 
 4988000    103.14324    13.920131   -42.651518    20.967286    24.798335    10.806028 
 4989000    106.80193    11.172531   -40.407865    21.113277    21.510514    8.9566065 
 4990000    110.11437     6.052781   -41.749289    18.213509    21.688675    7.8998854 
 4991000    111.66991    7.2260118   -38.707845    17.144725    20.907988    7.8811429 
 4992000    110.77638    4.4005195     -40.9406    17.030327    21.443596    6.8671966 
 4993000    102.00821    9.5336671   -41.175982    18.853432    24.062125    7.7940918 
 4994000    106.38633    2.9984439   -40.985264    16.822211    19.834513    7.3269836 
 4995000    99.705625    5.4006723   -43.391788    20.957032    21.378362    6.4570662 
 4996000    104.39277    5.1780811   -43.514156    19.160486    21.332069    8.1996816 
 4997000    108.48289    1.8651569   -42.006951     17.68151      19.1269    7.0636977 
 4998000    99.561886    4.0437218   -44.524891    18.089626    21.829792    8.6491956 
 4999000    106.71972   0.19755639   -45.745004    16.214386    21.828407    7.8997674 
 5000000    101.12568    3.0173706   -46.425776    22.454008    18.884001    8.1051386 
Loop time of 591.027 on 4 procs for 5000000 steps with 185 atoms

Performance: 365.465 ns/day, 0.066 hours/ns, 8459.848 timesteps/s
97.9% CPU use with 4 MPI tasks x no OpenMP threads

MPI task timing breakdown:
Section |  min time  |  avg time  |  max time  |%varavg| %total
---------------------------------------------------------------
Pair    | 259.19     | 305.53     | 351.46     | 229.8 | 51.69
Bond    | 76.533     | 86.356     | 95.563     |  92.5 | 14.61
Neigh   | 3.2276     | 3.239      | 3.2521     |   0.5 |  0.55
Comm    | 94.032     | 152.4      | 212.34     | 406.8 | 25.78
Output  | 0.26613    | 0.3464     | 0.57661    |  22.6 |  0.06
Modify  | 31.675     | 35.64      | 40.384     |  58.8 |  6.03
Other   |            | 7.519      |            |       |  1.27

Nlocal:    46.25 ave 53 max 41 min
Histogram: 1 0 0 1 1 0 0 0 0 1
Nghost:    138.75 ave 144 max 132 min
Histogram: 1 0 0 0 0 1 1 0 0 1
Neighs:    4058.75 ave 4641 max 3597 min
Histogram: 1 0 0 1 1 0 0 0 0 1

Total # of neighbors = 16235
Ave neighs/atom = 87.7568
Ave special neighs/atom = 8.04324
Neighbor list builds = 23794
Dangerous builds = 0
clear

next t
next a
jump SELF loopstart
# set logfile
log		log.run.$t
log		log.run.115
