
# Box and units  (use LJ units and periodic boundaries)
units		real
# so:
#    mass = grams/mole		# same in gromacs
#    distance = Angstroms	# nm in gromacs
#    time = femtoseconds	# ps in gromacs
#    energy = Kcal/mole		# kcal/mol in gromacs
#    velocity = Angstroms/femtosecond	# ...
#    force = Kcal/mole-Angstrom	# ...
#    temperature = Kelvin	# same in gromacs
#    pressure = atmospheres	# same in gromacs
#    dynamic viscosity = Poise	# no idea
dimension	3
atom_style	molecular
boundary	p p p


# Pair interactions require lists of neighbours to be calculated
neighbor	5.0 nsq
neigh_modify	every 1 delay 10 check yes

# define interactions
pair_style	lj12106/cut  30.0 # same as in md_sample.mdp from the smog-model web-tool
pair_modify	shift yes
bond_style	harmonic
angle_style	harmonic
dihedral_style	charmm
special_bonds	lj 0.0 0.0 0.0 angle yes dihedral yes # 3 exclusions

# READ "start" data file
read_data ../../protein/cystatin/3GAX/7-coarsegrained/data.input
  orthogonal box = (-200 -200 -200) to (200 200 200)
  1 by 2 by 2 MPI processor grid
  reading atoms ...
  208 atoms
  scanning bonds ...
  2 = max bonds/atom
  scanning angles ...
  3 = max angles/atom
  scanning dihedrals ...
  8 = max dihedrals/atom
  reading bonds ...
  208 bonds
  reading angles ...
  306 angles
  reading dihedrals ...
  680 dihedrals
  4 = max # of 1-2 neighbors
  5 = max # of 1-3 neighbors
  13 = max # of 1-4 neighbors
  620 = # of 1-3 neighbors before angle trim
  612 = # of 1-3 neighbors after angle trim
  1129 = # of 1-4 neighbors before dihedral trim
  680 = # of 1-4 neighbors after dihedral trim
  12 = max # of special neighbors

# define coeffs
include ../../protein/cystatin/3GAX/7-coarsegrained/settings.param
pair_coeff 1 1 0.000000e+00 0.000000e+00 4.009755e+04 # CA1-CA1 type=non-native eps=0.002390 sigma=4.000000
pair_coeff 1 2 -7.705603e+02 0.000000e+00 1.242182e+06 # CA1-CA2 type=native eps=0.119500 sigma=3.843570
pair_coeff 1 3 -9.297010e+02 0.000000e+00 1.808251e+06 # CA1-SC2 type=native eps=0.119500 sigma=3.965740
pair_coeff 1 4 -1.512188e+04 0.000000e+00 5.979899e+08 # CA1-CA3 type=native eps=0.095600 sigma=6.551685
pair_coeff 1 5 -8.460246e+04 0.000000e+00 1.247834e+10 # CA1-SC3 type=native eps=0.143400 sigma=8.158944
pair_coeff 1 6 -3.163870e+05 0.000000e+00 1.570618e+11 # CA1-CA4 type=native eps=0.159333 sigma=9.988041
pair_coeff 1 7 -2.450490e+05 0.000000e+00 1.884383e+11 # CA1-SC4 type=native eps=0.079667 sigma=10.743795
pair_coeff 1 8 -1.357535e+06 0.000000e+00 2.570294e+12 # CA1-CA5 type=native eps=0.179250 sigma=12.484667
pair_coeff 1 9 -3.855445e+05 0.000000e+00 6.219438e+11 # CA1-SC5 type=native eps=0.059750 sigma=12.155825
pair_coeff 1 10 -8.404397e+06 0.000000e+00 7.388483e+13 # CA1-CA6 type=native eps=0.239000 sigma=16.125497
pair_coeff 1 11 0.000000e+00 0.000000e+00 1.085818e+04 # CA1-SC6 type=non-native eps=0.002390 sigma=3.587401
pair_coeff 1 12 -1.114102e+07 0.000000e+00 2.596701e+14 # CA1-CA7 type=native eps=0.119500 sigma=18.970896
pair_coeff 1 13 -1.698875e+07 0.000000e+00 6.038028e+14 # CA1-SC7 type=native eps=0.119500 sigma=20.352945
pair_coeff 1 14 -3.651625e+07 0.000000e+00 1.394808e+15 # CA1-CA8 type=native eps=0.239000 sigma=20.598853
pair_coeff 1 15 0.000000e+00 0.000000e+00 6.317440e+04 # CA1-SC8 type=non-native eps=0.002390 sigma=4.154435
pair_coeff 1 16 -6.293775e+06 0.000000e+00 1.243042e+14 # CA1-CA9 type=native eps=0.079667 sigma=18.454435
pair_coeff 1 17 -3.907556e+06 0.000000e+00 2.395762e+13 # CA1-SC9 type=native eps=0.159333 sigma=15.185465
pair_coeff 1 18 -1.774906e+07 0.000000e+00 6.590565e+14 # CA1-CA10 type=native eps=0.119500 sigma=20.502000
pair_coeff 1 19 -2.769455e+07 0.000000e+00 1.604578e+15 # CA1-SC10 type=native eps=0.119500 sigma=22.080017
pair_coeff 1 20 -1.501070e+07 0.000000e+00 2.356915e+14 # CA1-CA11 type=native eps=0.239000 sigma=17.762149
pair_coeff 1 21 -6.366577e+06 0.000000e+00 7.066475e+13 # CA1-CA12 type=native eps=0.143400 sigma=16.764392
pair_coeff 1 22 -3.008667e+06 0.000000e+00 2.367175e+13 # CA1-SC12 type=native eps=0.095600 sigma=15.830004
pair_coeff 1 23 -3.575635e+07 0.000000e+00 1.337360e+15 # CA1-CA13 type=native eps=0.239000 sigma=20.526782
pair_coeff 1 24 0.000000e+00 0.000000e+00 1.293687e+05 # CA1-SC13 type=non-native eps=0.002390 sigma=4.410142
pair_coeff 1 25 -1.366155e+07 0.000000e+00 5.856835e+14 # CA1-CA14 type=native eps=0.079667 sigma=20.999012
pair_coeff 1 26 -5.929064e+07 0.000000e+00 5.515764e+15 # CA1-SC14 type=native eps=0.159333 sigma=23.893233
pair_coeff 1 27 -1.221687e+07 0.000000e+00 2.341820e+14 # CA1-CA15 type=native eps=0.159333 sigma=18.362730
pair_coeff 1 28 -3.671344e+06 0.000000e+00 4.229739e+13 # CA1-SC15 type=native eps=0.079667 sigma=16.868886
pair_coeff 1 29 -1.189860e+07 0.000000e+00 3.702319e+14 # CA1-CA16 type=native eps=0.095600 sigma=19.906794
pair_coeff 1 30 -2.268682e+07 0.000000e+00 8.973010e+14 # CA1-SC16 type=native eps=0.143400 sigma=20.718855
pair_coeff 1 31 -3.958747e+07 0.000000e+00 3.278593e+15 # CA1-CA17 type=native eps=0.119500 sigma=23.434731
pair_coeff 1 32 -6.627091e+07 0.000000e+00 9.187935e+15 # CA1-SC17 type=native eps=0.119500 sigma=25.536076
pair_coeff 1 33 -9.260876e+06 0.000000e+00 6.279778e+14 # CA1-CA18 type=native eps=0.034143 sigma=22.666634
pair_coeff 1 34 -4.179269e+07 0.000000e+00 2.131521e+15 # CA1-SC18 type=native eps=0.204857 sigma=21.615728
pair_coeff 1 35 -3.300542e+07 0.000000e+00 1.519328e+15 # CA1-CA19 type=native eps=0.179250 sigma=21.249532
pair_coeff 1 36 -7.586071e+06 0.000000e+00 2.407886e+14 # CA1-SC19 type=native eps=0.059750 sigma=19.972917
pair_coeff 1 37 -3.792383e+07 0.000000e+00 3.761028e+15 # CA1-CA20 type=native eps=0.095600 sigma=24.149273
pair_coeff 1 38 -6.262869e+07 0.000000e+00 6.838133e+15 # CA1-SC20 type=native eps=0.143400 sigma=24.539499
pair_coeff 1 39 -1.645308e+08 0.000000e+00 2.831631e+16 # CA1-CA21 type=native eps=0.239000 sigma=26.473004
pair_coeff 1 40 -4.325208e+07 0.000000e+00 5.870530e+15 # CA1-CA22 type=native eps=0.079667 sigma=25.445836
pair_coeff 1 41 -7.660248e+07 0.000000e+00 9.207019e+15 # CA1-SC22 type=native eps=0.159333 sigma=24.935478
pair_coeff 1 42 -4.752070e+07 0.000000e+00 7.086454e+15 # CA1-CA23 type=native eps=0.079667 sigma=25.848144
pair_coeff 1 43 -1.132306e+08 0.000000e+00 2.011689e+16 # CA1-SC23 type=native eps=0.159333 sigma=26.613654
pair_coeff 1 44 -1.226562e+08 0.000000e+00 3.934241e+16 # CA1-CA24 type=native eps=0.095600 sigma=29.367496
pair_coeff 1 45 -1.917971e+08 0.000000e+00 6.413202e+16 # CA1-SC24 type=native eps=0.143400 sigma=29.571758
pair_coeff 1 46 -3.726405e+08 0.000000e+00 1.452520e+17 # CA1-CA25 type=native eps=0.239000 sigma=30.337307
pair_coeff 1 47 0.000000e+00 0.000000e+00 6.317440e+04 # CA1-SC25 type=non-native eps=0.002390 sigma=4.154435
pair_coeff 1 48 0.000000e+00 0.000000e+00 4.009755e+04 # CA1-CA26 type=non-native eps=0.002390 sigma=4.000000
pair_coeff 1 49 0.000000e+00 0.000000e+00 3.442571e+03 # CA1-SC26 type=non-native eps=0.002390 sigma=3.259921
pair_coeff 1 50 -2.243899e+08 0.000000e+00 1.053365e+17 # CA1-CA27 type=native eps=0.119500 sigma=31.292067
pair_coeff 1 51 -2.322741e+08 0.000000e+00 1.128687e+17 # CA1-SC27 type=native eps=0.119500 sigma=31.472686
pair_coeff 1 52 0.000000e+00 0.000000e+00 4.009755e+04 # CA1-CA28 type=non-native eps=0.002390 sigma=4.000000
pair_coeff 1 53 0.000000e+00 0.000000e+00 4.009755e+04 # CA1-SC28 type=non-native eps=0.002390 sigma=4.000000
pair_coeff 1 54 -3.784337e+08 0.000000e+00 3.745086e+17 # CA1-CA29 type=native eps=0.095600 sigma=35.433740
pair_coeff 1 55 -5.154005e+08 0.000000e+00 4.631061e+17 # CA1-SC29 type=native eps=0.143400 sigma=34.868046
pair_coeff 1 56 -5.984279e+08 0.000000e+00 9.364955e+17 # CA1-CA30 type=native eps=0.095600 sigma=38.246114
pair_coeff 1 57 -1.473243e+09 0.000000e+00 3.783898e+18 # CA1-SC30 type=native eps=0.143400 sigma=41.538345
pair_coeff 1 58 -5.624528e+08 0.000000e+00 6.618266e+17 # CA1-CA31 type=native eps=0.119500 sigma=36.471030
pair_coeff 1 59 -9.550739e+08 0.000000e+00 1.908297e+18 # CA1-SC31 type=native eps=0.119500 sigma=39.835767
pair_coeff 1 60 -2.872588e+08 0.000000e+00 2.014029e+17 # CA1-CA32 type=native eps=0.102429 sigma=33.455720
pair_coeff 1 61 -2.934573e+08 0.000000e+00 1.576413e+17 # CA1-SC32 type=native eps=0.136571 sigma=32.003134
pair_coeff 1 62 -2.282432e+08 0.000000e+00 9.082108e+16 # CA1-CA33 type=native eps=0.143400 sigma=30.441763
pair_coeff 1 63 -1.446193e+08 0.000000e+00 5.469338e+16 # CA1-SC33 type=native eps=0.095600 sigma=30.184900
pair_coeff 1 64 -8.143585e+07 0.000000e+00 2.081108e+16 # CA1-CA34 type=native eps=0.079667 sigma=28.276013
pair_coeff 1 65 -2.801840e+08 0.000000e+00 1.231743e+17 # CA1-SC34 type=native eps=0.159333 sigma=30.951696
pair_coeff 1 66 -9.613957e+07 0.000000e+00 1.289096e+16 # CA1-CA35 type=native eps=0.179250 sigma=25.394256
pair_coeff 1 67 -2.327960e+07 0.000000e+00 2.267531e+15 # CA1-SC35 type=native eps=0.059750 sigma=24.076939
pair_coeff 1 68 -6.453197e+07 0.000000e+00 1.306812e+16 # CA1-CA36 type=native eps=0.079667 sigma=27.200573
pair_coeff 1 69 -1.717751e+08 0.000000e+00 4.629710e+16 # CA1-SC36 type=native eps=0.159333 sigma=28.527952
pair_coeff 1 70 -4.578683e+07 0.000000e+00 4.385844e+15 # CA1-CA37 type=native eps=0.119500 sigma=24.009905
pair_coeff 1 71 -4.298001e+07 0.000000e+00 3.864604e+15 # CA1-SC37 type=native eps=0.119500 sigma=23.758085
pair_coeff 1 72 -8.704802e+06 0.000000e+00 3.170443e+14 # CA1-CA38 type=native eps=0.059750 sigma=20.436123
pair_coeff 1 73 -2.120090e+07 0.000000e+00 6.268870e+14 # CA1-SC38 type=native eps=0.179250 sigma=19.738350
pair_coeff 1 74 -5.527970e+06 0.000000e+00 1.278596e+14 # CA1-CA39 type=native eps=0.059750 sigma=18.946673
pair_coeff 1 75 -2.003311e+07 0.000000e+00 5.597287e+14 # CA1-SC39 type=native eps=0.179250 sigma=19.552841
pair_coeff 1 76 -1.999236e+06 0.000000e+00 1.254272e+13 # CA1-CA40 type=native eps=0.079667 sigma=15.243789
pair_coeff 1 77 -9.248936e+05 0.000000e+00 1.342199e+12 # CA1-SC40 type=native eps=0.159333 sigma=11.943342
pair_coeff 1 78 -1.336872e+06 0.000000e+00 3.738970e+12 # CA1-CA41 type=native eps=0.119500 sigma=13.323408
pair_coeff 1 79 -2.000252e+06 0.000000e+00 8.370310e+12 # CA1-SC41 type=native eps=0.119500 sigma=14.248893
pair_coeff 1 80 -1.593516e+05 0.000000e+00 6.640414e+10 # CA1-CA42 type=native eps=0.095600 sigma=9.700887
pair_coeff 1 81 -1.208795e+05 0.000000e+00 2.547394e+10 # CA1-SC42 type=native eps=0.143400 sigma=8.658890
pair_coeff 1 82 -3.365084e+04 0.000000e+00 5.922484e+09 # CA1-CA43 type=native eps=0.047800 sigma=8.402780
pair_coeff 1 83 -7.165821e+05 0.000000e+00 6.714041e+11 # CA1-SC43 type=native eps=0.191200 sigma=11.103452
pair_coeff 1 84 -1.296119e+04 0.000000e+00 4.393107e+08 # CA1-CA44 type=native eps=0.095600 sigma=6.385469
pair_coeff 1 85 -1.691210e+03 0.000000e+00 4.986385e+06 # CA1-SC44 type=native eps=0.143400 sigma=4.250464
pair_coeff 1 86 -5.114270e+04 0.000000e+00 1.094383e+10 # CA1-CA45 type=native eps=0.059750 sigma=8.680991
pair_coeff 1 87 -3.020365e+05 0.000000e+00 1.272330e+11 # CA1-SC45 type=native eps=0.179250 sigma=9.718406
pair_coeff 1 88 -2.303983e+05 0.000000e+00 1.110531e+11 # CA1-CA46 type=native eps=0.119500 sigma=9.939096
pair_coeff 1 89 -1.819371e+05 0.000000e+00 6.924922e+10 # CA1-SC46 type=native eps=0.119500 sigma=9.555511
pair_coeff 1 90 -1.596577e+06 0.000000e+00 5.332755e+12 # CA1-CA47 type=native eps=0.119500 sigma=13.723513
pair_coeff 1 91 -2.268119e+06 0.000000e+00 1.076226e+13 # CA1-SC47 type=native eps=0.119500 sigma=14.550502
pair_coeff 1 92 -3.539787e+06 0.000000e+00 1.310679e+13 # CA1-CA48 type=native eps=0.239000 sigma=13.961268
pair_coeff 1 93 -6.410722e+05 0.000000e+00 8.597774e+11 # CA1-CA49 type=native eps=0.119500 sigma=11.787404
pair_coeff 1 94 -8.108391e+05 0.000000e+00 1.375440e+12 # CA1-SC49 type=native eps=0.119500 sigma=12.258090
pair_coeff 1 95 -2.060193e+05 0.000000e+00 1.331923e+11 # CA1-CA50 type=native eps=0.079667 sigma=10.437589
pair_coeff 1 96 -3.279418e+05 0.000000e+00 1.687435e+11 # CA1-SC50 type=native eps=0.159333 sigma=10.047932
pair_coeff 1 97 -3.718764e+05 0.000000e+00 4.339708e+11 # CA1-CA51 type=native eps=0.079667 sigma=11.517246
pair_coeff 1 98 -2.069244e+06 0.000000e+00 6.718258e+12 # CA1-SC51 type=native eps=0.159333 sigma=13.658799
pair_coeff 1 99 -3.271579e+05 0.000000e+00 3.358754e+11 # CA1-CA52 type=native eps=0.079667 sigma=11.273925
pair_coeff 1 100 -1.220047e+05 0.000000e+00 2.335537e+10 # CA1-SC52 type=native eps=0.159333 sigma=8.521316
pair_coeff 1 101 -1.820267e+06 0.000000e+00 8.664680e+12 # CA1-CA53 type=native eps=0.095600 sigma=14.558207
pair_coeff 1 102 -3.874571e+06 0.000000e+00 2.617207e+13 # CA1-SC53 type=native eps=0.143400 sigma=15.432658
pair_coeff 1 103 -2.518649e+06 0.000000e+00 2.654224e+13 # CA1-CA54 type=native eps=0.059750 sigma=16.620087
pair_coeff 1 104 -4.083930e+06 0.000000e+00 2.326149e+13 # CA1-SC54 type=native eps=0.179250 sigma=15.000240
pair_coeff 1 105 -1.599619e+07 0.000000e+00 5.353099e+14 # CA1-CA55 type=native eps=0.119500 sigma=20.149756
pair_coeff 1 106 -1.631150e+07 0.000000e+00 5.566213e+14 # CA1-SC55 type=native eps=0.119500 sigma=20.215415
pair_coeff 1 107 -1.661824e+07 0.000000e+00 1.444382e+15 # CA1-CA56 type=native eps=0.047800 sigma=23.624059
pair_coeff 1 108 -8.068396e+07 0.000000e+00 8.511901e+15 # CA1-SC56 type=native eps=0.191200 sigma=24.399348
pair_coeff 1 109 -6.075288e+07 0.000000e+00 9.651969e+15 # CA1-CA57 type=native eps=0.095600 sigma=26.122406
pair_coeff 1 110 -7.091966e+07 0.000000e+00 8.768477e+15 # CA1-SC57 type=native eps=0.143400 sigma=25.053280
pair_coeff 1 111 -3.380712e+08 0.000000e+00 1.195524e+17 # CA1-CA58 type=native eps=0.239000 sigma=29.849017
pair_coeff 1 112 -2.007225e+08 0.000000e+00 1.264316e+17 # CA1-CA59 type=native eps=0.079667 sigma=32.863584
pair_coeff 1 113 -6.114262e+08 0.000000e+00 5.865722e+17 # CA1-SC59 type=native eps=0.159333 sigma=35.250713
pair_coeff 1 114 -3.594491e+08 0.000000e+00 3.378756e+17 # CA1-CA60 type=native eps=0.095600 sigma=35.131086
pair_coeff 1 115 -4.753048e+08 0.000000e+00 3.938541e+17 # CA1-SC60 type=native eps=0.143400 sigma=34.400560
pair_coeff 1 116 -9.885996e+08 0.000000e+00 1.703851e+18 # CA1-CA61 type=native eps=0.143400 sigma=38.866331
pair_coeff 1 117 -7.524414e+08 0.000000e+00 1.480565e+18 # CA1-SC61 type=native eps=0.095600 sigma=39.734169
pair_coeff 1 118 -8.145312e+08 0.000000e+00 1.387994e+18 # CA1-CA62 type=native eps=0.119500 sigma=38.792845
pair_coeff 1 119 -6.298130e+08 0.000000e+00 8.298419e+17 # CA1-SC62 type=native eps=0.119500 sigma=37.165127
pair_coeff 1 120 0.000000e+00 0.000000e+00 4.009755e+04 # CA1-CA63 type=non-native eps=0.002390 sigma=4.000000
pair_coeff 1 121 0.000000e+00 0.000000e+00 2.286802e+04 # CA1-SC63 type=non-native eps=0.002390 sigma=3.817121
pair_coeff 1 122 0.000000e+00 0.000000e+00 4.009755e+04 # CA1-CA64 type=non-native eps=0.002390 sigma=4.000000
pair_coeff 1 123 0.000000e+00 0.000000e+00 6.317440e+04 # CA1-SC64 type=non-native eps=0.002390 sigma=4.154435
pair_coeff 1 124 0.000000e+00 0.000000e+00 4.009755e+04 # CA1-CA65 type=non-native eps=0.002390 sigma=4.000000
pair_coeff 1 125 0.000000e+00 0.000000e+00 2.286802e+04 # CA1-SC65 type=non-native eps=0.002390 sigma=3.817121
pair_coeff 1 126 0.000000e+00 0.000000e+00 4.009755e+04 # CA1-CA66 type=non-native eps=0.002390 sigma=4.000000
pair_coeff 1 127 0.000000e+00 0.000000e+00 9.272377e+04 # CA1-SC66 type=non-native eps=0.002390 sigma=4.289428
pair_coeff 1 128 0.000000e+00 0.000000e+00 4.009755e+04 # CA1-CA67 type=non-native eps=0.002390 sigma=4.000000
pair_coeff 1 129 0.000000e+00 0.000000e+00 4.009755e+04 # CA1-SC67 type=non-native eps=0.002390 sigma=4.000000
pair_coeff 1 130 0.000000e+00 0.000000e+00 4.009755e+04 # CA1-CA68 type=non-native eps=0.002390 sigma=4.000000
pair_coeff 1 131 0.000000e+00 0.000000e+00 4.009755e+04 # CA1-SC68 type=non-native eps=0.002390 sigma=4.000000
pair_coeff 1 132 0.000000e+00 0.000000e+00 4.009755e+04 # CA1-CA69 type=non-native eps=0.002390 sigma=4.000000
pair_coeff 1 133 0.000000e+00 0.000000e+00 4.009755e+04 # CA1-SC69 type=non-native eps=0.002390 sigma=4.000000
pair_coeff 1 134 0.000000e+00 0.000000e+00 4.009755e+04 # CA1-CA70 type=non-native eps=0.002390 sigma=4.000000
pair_coeff 1 135 0.000000e+00 0.000000e+00 1.085818e+04 # CA1-SC70 type=non-native eps=0.002390 sigma=3.587401
pair_coeff 1 136 0.000000e+00 0.000000e+00 4.009755e+04 # CA1-CA71 type=non-native eps=0.002390 sigma=4.000000
pair_coeff 1 137 0.000000e+00 0.000000e+00 2.286802e+04 # CA1-SC71 type=non-native eps=0.002390 sigma=3.817121
pair_coeff 1 138 0.000000e+00 0.000000e+00 4.009755e+04 # CA1-CA72 type=non-native eps=0.002390 sigma=4.000000
pair_coeff 1 139 -4.710505e+08 0.000000e+00 2.321010e+17 # CA1-SC72 type=native eps=0.239000 sigma=31.545682
pair_coeff 1 140 -2.060873e+08 0.000000e+00 2.665605e+17 # CA1-CA73 type=native eps=0.039833 sigma=37.050644
pair_coeff 1 141 -1.253748e+09 0.000000e+00 1.973075e+18 # CA1-SC73 type=native eps=0.199167 sigma=38.281938
pair_coeff 1 142 -1.562129e+09 0.000000e+00 2.552560e+18 # CA1-CA74 type=native eps=0.239000 sigma=38.522533
pair_coeff 1 143 0.000000e+00 0.000000e+00 4.009755e+04 # CA1-SC74 type=non-native eps=0.002390 sigma=4.000000
pair_coeff 1 144 -1.833840e+09 0.000000e+00 3.517750e+18 # CA1-CA75 type=native eps=0.239000 sigma=39.566010
pair_coeff 1 145 0.000000e+00 0.000000e+00 6.317440e+04 # CA1-SC75 type=non-native eps=0.002390 sigma=4.154435
pair_coeff 1 146 -1.163610e+09 0.000000e+00 1.416306e+18 # CA1-CA76 type=native eps=0.239000 sigma=36.677237
pair_coeff 1 147 0.000000e+00 0.000000e+00 2.286802e+04 # CA1-SC76 type=non-native eps=0.002390 sigma=3.817121
pair_coeff 1 148 0.000000e+00 0.000000e+00 4.009755e+04 # CA1-CA77 type=non-native eps=0.002390 sigma=4.000000
pair_coeff 1 149 0.000000e+00 0.000000e+00 9.272377e+04 # CA1-SC77 type=non-native eps=0.002390 sigma=4.289428
pair_coeff 1 150 0.000000e+00 0.000000e+00 4.009755e+04 # CA1-CA78 type=non-native eps=0.002390 sigma=4.000000
pair_coeff 1 151 0.000000e+00 0.000000e+00 4.009755e+04 # CA1-SC78 type=non-native eps=0.002390 sigma=4.000000
pair_coeff 1 152 0.000000e+00 0.000000e+00 4.009755e+04 # CA1-CA79 type=non-native eps=0.002390 sigma=4.000000
pair_coeff 1 153 0.000000e+00 0.000000e+00 6.317440e+04 # CA1-SC79 type=non-native eps=0.002390 sigma=4.154435
pair_coeff 1 154 -2.970911e+08 0.000000e+00 1.846508e+17 # CA1-CA80 type=native eps=0.119500 sigma=32.790543
pair_coeff 1 155 -4.249209e+08 0.000000e+00 3.777359e+17 # CA1-SC80 type=native eps=0.119500 sigma=34.805806
pair_coeff 1 156 -7.770944e+07 0.000000e+00 2.526677e+16 # CA1-CA81 type=native eps=0.059750 sigma=29.434115
pair_coeff 1 157 -1.885618e+08 0.000000e+00 4.958934e+16 # CA1-SC81 type=native eps=0.179250 sigma=28.411496
pair_coeff 1 158 -8.283084e+07 0.000000e+00 1.435345e+16 # CA1-CA82 type=native eps=0.119500 sigma=26.503244
pair_coeff 1 159 -8.391926e+07 0.000000e+00 1.473314e+16 # CA1-SC82 type=native eps=0.119500 sigma=26.560971
pair_coeff 1 160 -3.502712e+07 0.000000e+00 2.566735e+15 # CA1-CA83 type=native eps=0.119500 sigma=22.961544
pair_coeff 1 161 -1.634791e+07 0.000000e+00 5.591092e+14 # CA1-SC83 type=native eps=0.119500 sigma=20.222929
pair_coeff 1 162 -1.209165e+07 0.000000e+00 4.588116e+14 # CA1-CA84 type=native eps=0.079667 sigma=20.576104
pair_coeff 1 163 -4.060377e+07 0.000000e+00 2.586819e+15 # CA1-SC84 type=native eps=0.159333 sigma=22.432187
pair_coeff 1 164 -7.386779e+06 0.000000e+00 8.561376e+13 # CA1-CA85 type=native eps=0.159333 sigma=16.885726
pair_coeff 1 165 -2.959598e+06 0.000000e+00 2.748709e+13 # CA1-SC85 type=native eps=0.079667 sigma=16.273751
pair_coeff 1 166 -2.332320e+06 0.000000e+00 2.276032e+13 # CA1-CA86 type=native eps=0.059750 sigma=16.408543
pair_coeff 1 167 -1.969146e+07 0.000000e+00 5.408001e+14 # CA1-SC86 type=native eps=0.179250 sigma=19.496866
pair_coeff 1 168 -9.467417e+05 0.000000e+00 3.281506e+12 # CA1-CA87 type=native eps=0.068286 sigma=13.808461
pair_coeff 1 169 -1.146809e+06 0.000000e+00 1.925982e+12 # CA1-SC87 type=native eps=0.170714 sigma=12.237664
pair_coeff 1 170 -1.428089e+06 0.000000e+00 8.533214e+12 # CA1-CA88 type=native eps=0.059750 sigma=15.120445
pair_coeff 1 171 -6.583396e+06 0.000000e+00 6.044784e+13 # CA1-SC88 type=native eps=0.179250 sigma=16.242772
pair_coeff 1 172 -1.818698e+06 0.000000e+00 8.649749e+12 # CA1-CA89 type=native eps=0.095600 sigma=14.556115
pair_coeff 1 173 -3.276517e+06 0.000000e+00 1.871612e+13 # CA1-SC89 type=native eps=0.143400 sigma=15.007403
pair_coeff 1 174 -4.403050e+06 0.000000e+00 4.055827e+13 # CA1-CA90 type=native eps=0.119500 sigma=16.251469
pair_coeff 1 175 -4.384141e+06 0.000000e+00 4.021065e+13 # CA1-SC90 type=native eps=0.119500 sigma=16.239816
pair_coeff 1 176 -8.936376e+06 0.000000e+00 1.392239e+14 # CA1-CA91 type=native eps=0.143400 sigma=17.739051
pair_coeff 1 177 -6.550754e+06 0.000000e+00 1.122186e+14 # CA1-SC91 type=native eps=0.095600 sigma=18.021900
pair_coeff 1 178 0.000000e+00 0.000000e+00 4.009755e+04 # CA1-CA92 type=non-native eps=0.002390 sigma=4.000000
pair_coeff 1 179 0.000000e+00 0.000000e+00 2.286802e+04 # CA1-SC92 type=non-native eps=0.002390 sigma=3.817121
pair_coeff 1 180 0.000000e+00 0.000000e+00 4.009755e+04 # CA1-CA93 type=non-native eps=0.002390 sigma=4.000000
pair_coeff 1 181 0.000000e+00 0.000000e+00 2.880942e+05 # CA1-SC93 type=non-native eps=0.002390 sigma=4.714418
pair_coeff 1 182 0.000000e+00 0.000000e+00 4.009755e+04 # CA1-CA94 type=non-native eps=0.002390 sigma=4.000000
pair_coeff 1 183 0.000000e+00 0.000000e+00 6.317440e+04 # CA1-SC94 type=non-native eps=0.002390 sigma=4.154435
pair_coeff 1 184 0.000000e+00 0.000000e+00 4.009755e+04 # CA1-CA95 type=non-native eps=0.002390 sigma=4.000000
pair_coeff 1 185 0.000000e+00 0.000000e+00 4.009755e+04 # CA1-CA96 type=non-native eps=0.002390 sigma=4.000000
pair_coeff 1 186 0.000000e+00 0.000000e+00 2.286802e+04 # CA1-SC96 type=non-native eps=0.002390 sigma=3.817121
pair_coeff 1 187 0.000000e+00 0.000000e+00 4.009755e+04 # CA1-CA97 type=non-native eps=0.002390 sigma=4.000000
pair_coeff 1 188 0.000000e+00 0.000000e+00 4.009755e+04 # CA1-SC97 type=non-native eps=0.002390 sigma=4.000000
pair_coeff 1 189 0.000000e+00 0.000000e+00 4.009755e+04 # CA1-CA98 type=non-native eps=0.002390 sigma=4.000000
pair_coeff 1 190 0.000000e+00 0.000000e+00 2.286802e+04 # CA1-SC98 type=non-native eps=0.002390 sigma=3.817121
pair_coeff 1 191 0.000000e+00 0.000000e+00 4.009755e+04 # CA1-CA99 type=non-native eps=0.002390 sigma=4.000000
pair_coeff 1 192 0.000000e+00 0.000000e+00 4.009755e+04 # CA1-SC99 type=non-native eps=0.002390 sigma=4.000000
pair_coeff 1 193 0.000000e+00 0.000000e+00 4.009755e+04 # CA1-CA100 type=non-native eps=0.002390 sigma=4.000000
pair_coeff 1 194 0.000000e+00 0.000000e+00 1.085818e+04 # CA1-SC100 type=non-native eps=0.002390 sigma=3.587401
pair_coeff 1 195 0.000000e+00 0.000000e+00 4.009755e+04 # CA1-CA101 type=non-native eps=0.002390 sigma=4.000000
pair_coeff 1 196 0.000000e+00 0.000000e+00 6.317440e+04 # CA1-SC101 type=non-native eps=0.002390 sigma=4.154435
pair_coeff 1 197 0.000000e+00 0.000000e+00 4.009755e+04 # CA1-CA102 type=non-native eps=0.002390 sigma=4.000000
pair_coeff 1 198 0.000000e+00 0.000000e+00 1.085818e+04 # CA1-SC102 type=non-native eps=0.002390 sigma=3.587401
pair_coeff 1 199 0.000000e+00 0.000000e+00 4.009755e+04 # CA1-CA103 type=non-native eps=0.002390 sigma=4.000000
pair_coeff 1 200 0.000000e+00 0.000000e+00 2.286802e+04 # CA1-SC103 type=non-native eps=0.002390 sigma=3.817121
pair_coeff 1 201 0.000000e+00 0.000000e+00 4.009755e+04 # CA1-CA104 type=non-native eps=0.002390 sigma=4.000000
pair_coeff 1 202 0.000000e+00 0.000000e+00 1.085818e+04 # CA1-SC104 type=non-native eps=0.002390 sigma=3.587401
pair_coeff 1 203 0.000000e+00 0.000000e+00 4.009755e+04 # CA1-CA105 type=non-native eps=0.002390 sigma=4.000000
pair_coeff 1 204 0.000000e+00 0.000000e+00 6.317440e+04 # CA1-SC105 type=non-native eps=0.002390 sigma=4.154435
pair_coeff 1 205 0.000000e+00 0.000000e+00 4.009755e+04 # CA1-CA106 type=non-native eps=0.002390 sigma=4.000000
pair_coeff 1 206 0.000000e+00 0.000000e+00 4.009755e+04 # CA1-SC106 type=non-native eps=0.002390 sigma=4.000000
pair_coeff 1 207 0.000000e+00 0.000000e+00 4.009755e+04 # CA1-CA107 type=non-native eps=0.002390 sigma=4.000000
pair_coeff 1 208 0.000000e+00 0.000000e+00 1.085818e+04 # CA1-SC107 type=non-native eps=0.002390 sigma=3.587401
pair_coeff 2 2 0.000000e+00 0.000000e+00 4.009755e+04 # CA2-CA2 type=non-native eps=0.002390 sigma=4.000000
pair_coeff 2 3 0.000000e+00 0.000000e+00 2.286802e+04 # CA2-SC2 type=non-native eps=0.002390 sigma=3.817121
pair_coeff 2 4 0.000000e+00 0.000000e+00 4.009755e+04 # CA2-CA3 type=non-native eps=0.002390 sigma=4.000000
pair_coeff 2 5 0.000000e+00 0.000000e+00 4.009755e+04 # CA2-SC3 type=non-native eps=0.002390 sigma=4.000000
pair_coeff 2 6 0.000000e+00 0.000000e+00 4.009755e+04 # CA2-CA4 type=non-native eps=0.002390 sigma=4.000000
pair_coeff 2 7 0.000000e+00 0.000000e+00 4.009755e+04 # CA2-SC4 type=non-native eps=0.002390 sigma=4.000000
pair_coeff 2 8 0.000000e+00 0.000000e+00 4.009755e+04 # CA2-CA5 type=non-native eps=0.002390 sigma=4.000000
pair_coeff 2 9 0.000000e+00 0.000000e+00 3.442571e+03 # CA2-SC5 type=non-native eps=0.002390 sigma=3.259921
pair_coeff 2 10 0.000000e+00 0.000000e+00 4.009755e+04 # CA2-CA6 type=non-native eps=0.002390 sigma=4.000000
pair_coeff 2 11 0.000000e+00 0.000000e+00 1.085818e+04 # CA2-SC6 type=non-native eps=0.002390 sigma=3.587401
pair_coeff 2 12 0.000000e+00 0.000000e+00 4.009755e+04 # CA2-CA7 type=non-native eps=0.002390 sigma=4.000000
pair_coeff 2 13 0.000000e+00 0.000000e+00 2.286802e+04 # CA2-SC7 type=non-native eps=0.002390 sigma=3.817121
pair_coeff 2 14 0.000000e+00 0.000000e+00 4.009755e+04 # CA2-CA8 type=non-native eps=0.002390 sigma=4.000000
pair_coeff 2 15 0.000000e+00 0.000000e+00 6.317440e+04 # CA2-SC8 type=non-native eps=0.002390 sigma=4.154435
pair_coeff 2 16 0.000000e+00 0.000000e+00 4.009755e+04 # CA2-CA9 type=non-native eps=0.002390 sigma=4.000000
pair_coeff 2 17 0.000000e+00 0.000000e+00 6.317440e+04 # CA2-SC9 type=non-native eps=0.002390 sigma=4.154435
pair_coeff 2 18 0.000000e+00 0.000000e+00 4.009755e+04 # CA2-CA10 type=non-native eps=0.002390 sigma=4.000000
pair_coeff 2 19 0.000000e+00 0.000000e+00 6.317440e+04 # CA2-SC10 type=non-native eps=0.002390 sigma=4.154435
pair_coeff 2 20 0.000000e+00 0.000000e+00 4.009755e+04 # CA2-CA11 type=non-native eps=0.002390 sigma=4.000000
pair_coeff 2 21 0.000000e+00 0.000000e+00 4.009755e+04 # CA2-CA12 type=non-native eps=0.002390 sigma=4.000000
pair_coeff 2 22 0.000000e+00 0.000000e+00 2.286802e+04 # CA2-SC12 type=non-native eps=0.002390 sigma=3.817121
pair_coeff 2 23 0.000000e+00 0.000000e+00 4.009755e+04 # CA2-CA13 type=non-native eps=0.002390 sigma=4.000000
pair_coeff 2 24 0.000000e+00 0.000000e+00 1.293687e+05 # CA2-SC13 type=non-native eps=0.002390 sigma=4.410142
pair_coeff 2 25 0.000000e+00 0.000000e+00 4.009755e+04 # CA2-CA14 type=non-native eps=0.002390 sigma=4.000000
pair_coeff 2 26 0.000000e+00 0.000000e+00 1.293687e+05 # CA2-SC14 type=non-native eps=0.002390 sigma=4.410142
pair_coeff 2 27 0.000000e+00 0.000000e+00 4.009755e+04 # CA2-CA15 type=non-native eps=0.002390 sigma=4.000000
pair_coeff 2 28 0.000000e+00 0.000000e+00 3.442571e+03 # CA2-SC15 type=non-native eps=0.002390 sigma=3.259921
pair_coeff 2 29 0.000000e+00 0.000000e+00 4.009755e+04 # CA2-CA16 type=non-native eps=0.002390 sigma=4.000000
pair_coeff 2 30 0.000000e+00 0.000000e+00 4.009755e+04 # CA2-SC16 type=non-native eps=0.002390 sigma=4.000000
pair_coeff 2 31 0.000000e+00 0.000000e+00 4.009755e+04 # CA2-CA17 type=non-native eps=0.002390 sigma=4.000000
pair_coeff 2 32 0.000000e+00 0.000000e+00 4.009755e+04 # CA2-SC17 type=non-native eps=0.002390 sigma=4.000000
pair_coeff 2 33 0.000000e+00 0.000000e+00 4.009755e+04 # CA2-CA18 type=non-native eps=0.002390 sigma=4.000000
pair_coeff 2 34 0.000000e+00 0.000000e+00 1.293687e+05 # CA2-SC18 type=non-native eps=0.002390 sigma=4.410142
pair_coeff 2 35 0.000000e+00 0.000000e+00 4.009755e+04 # CA2-CA19 type=non-native eps=0.002390 sigma=4.000000
pair_coeff 2 36 0.000000e+00 0.000000e+00 3.442571e+03 # CA2-SC19 type=non-native eps=0.002390 sigma=3.259921
pair_coeff 2 37 0.000000e+00 0.000000e+00 4.009755e+04 # CA2-CA20 type=non-native eps=0.002390 sigma=4.000000
pair_coeff 2 38 0.000000e+00 0.000000e+00 2.286802e+04 # CA2-SC20 type=non-native eps=0.002390 sigma=3.817121
pair_coeff 2 39 0.000000e+00 0.000000e+00 4.009755e+04 # CA2-CA21 type=non-native eps=0.002390 sigma=4.000000
pair_coeff 2 40 0.000000e+00 0.000000e+00 4.009755e+04 # CA2-CA22 type=non-native eps=0.002390 sigma=4.000000
pair_coeff 2 41 0.000000e+00 0.000000e+00 6.317440e+04 # CA2-SC22 type=non-native eps=0.002390 sigma=4.154435
pair_coeff 2 42 0.000000e+00 0.000000e+00 4.009755e+04 # CA2-CA23 type=non-native eps=0.002390 sigma=4.000000
pair_coeff 2 43 0.000000e+00 0.000000e+00 1.737309e+05 # CA2-SC23 type=non-native eps=0.002390 sigma=4.519842
pair_coeff 2 44 0.000000e+00 0.000000e+00 4.009755e+04 # CA2-CA24 type=non-native eps=0.002390 sigma=4.000000
pair_coeff 2 45 0.000000e+00 0.000000e+00 4.009755e+04 # CA2-SC24 type=non-native eps=0.002390 sigma=4.000000
pair_coeff 2 46 0.000000e+00 0.000000e+00 4.009755e+04 # CA2-CA25 type=non-native eps=0.002390 sigma=4.000000
pair_coeff 2 47 0.000000e+00 0.000000e+00 6.317440e+04 # CA2-SC25 type=non-native eps=0.002390 sigma=4.154435
pair_coeff 2 48 0.000000e+00 0.000000e+00 4.009755e+04 # CA2-CA26 type=non-native eps=0.002390 sigma=4.000000
pair_coeff 2 49 0.000000e+00 0.000000e+00 3.442571e+03 # CA2-SC26 type=non-native eps=0.002390 sigma=3.259921
pair_coeff 2 50 0.000000e+00 0.000000e+00 4.009755e+04 # CA2-CA27 type=non-native eps=0.002390 sigma=4.000000
pair_coeff 2 51 0.000000e+00 0.000000e+00 1.085818e+04 # CA2-SC27 type=non-native eps=0.002390 sigma=3.587401
pair_coeff 2 52 0.000000e+00 0.000000e+00 4.009755e+04 # CA2-CA28 type=non-native eps=0.002390 sigma=4.000000
pair_coeff 2 53 0.000000e+00 0.000000e+00 4.009755e+04 # CA2-SC28 type=non-native eps=0.002390 sigma=4.000000
pair_coeff 2 54 0.000000e+00 0.000000e+00 4.009755e+04 # CA2-CA29 type=non-native eps=0.002390 sigma=4.000000
pair_coeff 2 55 0.000000e+00 0.000000e+00 4.009755e+04 # CA2-SC29 type=non-native eps=0.002390 sigma=4.000000
pair_coeff 2 56 0.000000e+00 0.000000e+00 4.009755e+04 # CA2-CA30 type=non-native eps=0.002390 sigma=4.000000
pair_coeff 2 57 0.000000e+00 0.000000e+00 4.009755e+04 # CA2-SC30 type=non-native eps=0.002390 sigma=4.000000
pair_coeff 2 58 0.000000e+00 0.000000e+00 4.009755e+04 # CA2-CA31 type=non-native eps=0.002390 sigma=4.000000
pair_coeff 2 59 0.000000e+00 0.000000e+00 1.737309e+05 # CA2-SC31 type=non-native eps=0.002390 sigma=4.519842
pair_coeff 2 60 0.000000e+00 0.000000e+00 4.009755e+04 # CA2-CA32 type=non-native eps=0.002390 sigma=4.000000
pair_coeff 2 61 0.000000e+00 0.000000e+00 9.272377e+04 # CA2-SC32 type=non-native eps=0.002390 sigma=4.289428
pair_coeff 2 62 0.000000e+00 0.000000e+00 4.009755e+04 # CA2-CA33 type=non-native eps=0.002390 sigma=4.000000
pair_coeff 2 63 0.000000e+00 0.000000e+00 1.085818e+04 # CA2-SC33 type=non-native eps=0.002390 sigma=3.587401
pair_coeff 2 64 0.000000e+00 0.000000e+00 4.009755e+04 # CA2-CA34 type=non-native eps=0.002390 sigma=4.000000
pair_coeff 2 65 0.000000e+00 0.000000e+00 1.293687e+05 # CA2-SC34 type=non-native eps=0.002390 sigma=4.410142
pair_coeff 2 66 0.000000e+00 0.000000e+00 4.009755e+04 # CA2-CA35 type=non-native eps=0.002390 sigma=4.000000
pair_coeff 2 67 0.000000e+00 0.000000e+00 3.442571e+03 # CA2-SC35 type=non-native eps=0.002390 sigma=3.259921
pair_coeff 2 68 0.000000e+00 0.000000e+00 4.009755e+04 # CA2-CA36 type=non-native eps=0.002390 sigma=4.000000
pair_coeff 2 69 0.000000e+00 0.000000e+00 4.009755e+04 # CA2-SC36 type=non-native eps=0.002390 sigma=4.000000
pair_coeff 2 70 0.000000e+00 0.000000e+00 4.009755e+04 # CA2-CA37 type=non-native eps=0.002390 sigma=4.000000
pair_coeff 2 71 0.000000e+00 0.000000e+00 6.317440e+04 # CA2-SC37 type=non-native eps=0.002390 sigma=4.154435
pair_coeff 2 72 0.000000e+00 0.000000e+00 4.009755e+04 # CA2-CA38 type=non-native eps=0.002390 sigma=4.000000
pair_coeff 2 73 0.000000e+00 0.000000e+00 2.286802e+04 # CA2-SC38 type=non-native eps=0.002390 sigma=3.817121
pair_coeff 2 74 0.000000e+00 0.000000e+00 4.009755e+04 # CA2-CA39 type=non-native eps=0.002390 sigma=4.000000
pair_coeff 2 75 0.000000e+00 0.000000e+00 2.286802e+04 # CA2-SC39 type=non-native eps=0.002390 sigma=3.817121
pair_coeff 2 76 0.000000e+00 0.000000e+00 4.009755e+04 # CA2-CA40 type=non-native eps=0.002390 sigma=4.000000
pair_coeff 2 77 0.000000e+00 0.000000e+00 1.293687e+05 # CA2-SC40 type=non-native eps=0.002390 sigma=4.410142
pair_coeff 2 78 0.000000e+00 0.000000e+00 4.009755e+04 # CA2-CA41 type=non-native eps=0.002390 sigma=4.000000
pair_coeff 2 79 0.000000e+00 0.000000e+00 3.442571e+03 # CA2-SC41 type=non-native eps=0.002390 sigma=3.259921
pair_coeff 2 80 0.000000e+00 0.000000e+00 4.009755e+04 # CA2-CA42 type=non-native eps=0.002390 sigma=4.000000
pair_coeff 2 81 0.000000e+00 0.000000e+00 1.293687e+05 # CA2-SC42 type=non-native eps=0.002390 sigma=4.410142
pair_coeff 2 82 0.000000e+00 0.000000e+00 4.009755e+04 # CA2-CA43 type=non-native eps=0.002390 sigma=4.000000
pair_coeff 2 83 0.000000e+00 0.000000e+00 6.317440e+04 # CA2-SC43 type=non-native eps=0.002390 sigma=4.154435
pair_coeff 2 84 0.000000e+00 0.000000e+00 4.009755e+04 # CA2-CA44 type=non-native eps=0.002390 sigma=4.000000
pair_coeff 2 85 0.000000e+00 0.000000e+00 6.317440e+04 # CA2-SC44 type=non-native eps=0.002390 sigma=4.154435
pair_coeff 2 86 0.000000e+00 0.000000e+00 4.009755e+04 # CA2-CA45 type=non-native eps=0.002390 sigma=4.000000
pair_coeff 2 87 0.000000e+00 0.000000e+00 4.009755e+04 # CA2-SC45 type=non-native eps=0.002390 sigma=4.000000
pair_coeff 2 88 0.000000e+00 0.000000e+00 4.009755e+04 # CA2-CA46 type=non-native eps=0.002390 sigma=4.000000
pair_coeff 2 89 0.000000e+00 0.000000e+00 2.286802e+04 # CA2-SC46 type=non-native eps=0.002390 sigma=3.817121
pair_coeff 2 90 0.000000e+00 0.000000e+00 4.009755e+04 # CA2-CA47 type=non-native eps=0.002390 sigma=4.000000
pair_coeff 2 91 0.000000e+00 0.000000e+00 3.442571e+03 # CA2-SC47 type=non-native eps=0.002390 sigma=3.259921
pair_coeff 2 92 0.000000e+00 0.000000e+00 4.009755e+04 # CA2-CA48 type=non-native eps=0.002390 sigma=4.000000
pair_coeff 2 93 0.000000e+00 0.000000e+00 4.009755e+04 # CA2-CA49 type=non-native eps=0.002390 sigma=4.000000
pair_coeff 2 94 0.000000e+00 0.000000e+00 2.286802e+04 # CA2-SC49 type=non-native eps=0.002390 sigma=3.817121
pair_coeff 2 95 0.000000e+00 0.000000e+00 4.009755e+04 # CA2-CA50 type=non-native eps=0.002390 sigma=4.000000
pair_coeff 2 96 0.000000e+00 0.000000e+00 4.009755e+04 # CA2-SC50 type=non-native eps=0.002390 sigma=4.000000
pair_coeff 2 97 0.000000e+00 0.000000e+00 4.009755e+04 # CA2-CA51 type=non-native eps=0.002390 sigma=4.000000
pair_coeff 2 98 0.000000e+00 0.000000e+00 1.737309e+05 # CA2-SC51 type=non-native eps=0.002390 sigma=4.519842
pair_coeff 2 99 0.000000e+00 0.000000e+00 4.009755e+04 # CA2-CA52 type=non-native eps=0.002390 sigma=4.000000
pair_coeff 2 100 0.000000e+00 0.000000e+00 1.293687e+05 # CA2-SC52 type=non-native eps=0.002390 sigma=4.410142
pair_coeff 2 101 0.000000e+00 0.000000e+00 4.009755e+04 # CA2-CA53 type=non-native eps=0.002390 sigma=4.000000
pair_coeff 2 102 0.000000e+00 0.000000e+00 4.009755e+04 # CA2-SC53 type=non-native eps=0.002390 sigma=4.000000
pair_coeff 2 103 0.000000e+00 0.000000e+00 4.009755e+04 # CA2-CA54 type=non-native eps=0.002390 sigma=4.000000
pair_coeff 2 104 0.000000e+00 0.000000e+00 4.009755e+04 # CA2-SC54 type=non-native eps=0.002390 sigma=4.000000
pair_coeff 2 105 0.000000e+00 0.000000e+00 4.009755e+04 # CA2-CA55 type=non-native eps=0.002390 sigma=4.000000
pair_coeff 2 106 0.000000e+00 0.000000e+00 2.286802e+04 # CA2-SC55 type=non-native eps=0.002390 sigma=3.817121
pair_coeff 2 107 0.000000e+00 0.000000e+00 4.009755e+04 # CA2-CA56 type=non-native eps=0.002390 sigma=4.000000
pair_coeff 2 108 0.000000e+00 0.000000e+00 6.317440e+04 # CA2-SC56 type=non-native eps=0.002390 sigma=4.154435
pair_coeff 2 109 0.000000e+00 0.000000e+00 4.009755e+04 # CA2-CA57 type=non-native eps=0.002390 sigma=4.000000
pair_coeff 2 110 0.000000e+00 0.000000e+00 4.009755e+04 # CA2-SC57 type=non-native eps=0.002390 sigma=4.000000
pair_coeff 2 111 0.000000e+00 0.000000e+00 4.009755e+04 # CA2-CA58 type=non-native eps=0.002390 sigma=4.000000
pair_coeff 2 112 0.000000e+00 0.000000e+00 4.009755e+04 # CA2-CA59 type=non-native eps=0.002390 sigma=4.000000
pair_coeff 2 113 0.000000e+00 0.000000e+00 1.293687e+05 # CA2-SC59 type=non-native eps=0.002390 sigma=4.410142
pair_coeff 2 114 0.000000e+00 0.000000e+00 4.009755e+04 # CA2-CA60 type=non-native eps=0.002390 sigma=4.000000
pair_coeff 2 115 0.000000e+00 0.000000e+00 2.286802e+04 # CA2-SC60 type=non-native eps=0.002390 sigma=3.817121
pair_coeff 2 116 0.000000e+00 0.000000e+00 4.009755e+04 # CA2-CA61 type=non-native eps=0.002390 sigma=4.000000
pair_coeff 2 117 0.000000e+00 0.000000e+00 2.286802e+04 # CA2-SC61 type=non-native eps=0.002390 sigma=3.817121
pair_coeff 2 118 0.000000e+00 0.000000e+00 4.009755e+04 # CA2-CA62 type=non-native eps=0.002390 sigma=4.000000
pair_coeff 2 119 0.000000e+00 0.000000e+00 1.085818e+04 # CA2-SC62 type=non-native eps=0.002390 sigma=3.587401
pair_coeff 2 120 0.000000e+00 0.000000e+00 4.009755e+04 # CA2-CA63 type=non-native eps=0.002390 sigma=4.000000
pair_coeff 2 121 0.000000e+00 0.000000e+00 2.286802e+04 # CA2-SC63 type=non-native eps=0.002390 sigma=3.817121
pair_coeff 2 122 0.000000e+00 0.000000e+00 4.009755e+04 # CA2-CA64 type=non-native eps=0.002390 sigma=4.000000
pair_coeff 2 123 0.000000e+00 0.000000e+00 6.317440e+04 # CA2-SC64 type=non-native eps=0.002390 sigma=4.154435
pair_coeff 2 124 0.000000e+00 0.000000e+00 4.009755e+04 # CA2-CA65 type=non-native eps=0.002390 sigma=4.000000
pair_coeff 2 125 0.000000e+00 0.000000e+00 2.286802e+04 # CA2-SC65 type=non-native eps=0.002390 sigma=3.817121
pair_coeff 2 126 0.000000e+00 0.000000e+00 4.009755e+04 # CA2-CA66 type=non-native eps=0.002390 sigma=4.000000
pair_coeff 2 127 0.000000e+00 0.000000e+00 9.272377e+04 # CA2-SC66 type=non-native eps=0.002390 sigma=4.289428
pair_coeff 2 128 0.000000e+00 0.000000e+00 4.009755e+04 # CA2-CA67 type=non-native eps=0.002390 sigma=4.000000
pair_coeff 2 129 0.000000e+00 0.000000e+00 4.009755e+04 # CA2-SC67 type=non-native eps=0.002390 sigma=4.000000
pair_coeff 2 130 0.000000e+00 0.000000e+00 4.009755e+04 # CA2-CA68 type=non-native eps=0.002390 sigma=4.000000
pair_coeff 2 131 0.000000e+00 0.000000e+00 4.009755e+04 # CA2-SC68 type=non-native eps=0.002390 sigma=4.000000
pair_coeff 2 132 0.000000e+00 0.000000e+00 4.009755e+04 # CA2-CA69 type=non-native eps=0.002390 sigma=4.000000
pair_coeff 2 133 0.000000e+00 0.000000e+00 4.009755e+04 # CA2-SC69 type=non-native eps=0.002390 sigma=4.000000
pair_coeff 2 134 0.000000e+00 0.000000e+00 4.009755e+04 # CA2-CA70 type=non-native eps=0.002390 sigma=4.000000
pair_coeff 2 135 0.000000e+00 0.000000e+00 1.085818e+04 # CA2-SC70 type=non-native eps=0.002390 sigma=3.587401
pair_coeff 2 136 0.000000e+00 0.000000e+00 4.009755e+04 # CA2-CA71 type=non-native eps=0.002390 sigma=4.000000
pair_coeff 2 137 0.000000e+00 0.000000e+00 2.286802e+04 # CA2-SC71 type=non-native eps=0.002390 sigma=3.817121
pair_coeff 2 138 0.000000e+00 0.000000e+00 4.009755e+04 # CA2-CA72 type=non-native eps=0.002390 sigma=4.000000
pair_coeff 2 139 0.000000e+00 0.000000e+00 1.293687e+05 # CA2-SC72 type=non-native eps=0.002390 sigma=4.410142
pair_coeff 2 140 0.000000e+00 0.000000e+00 4.009755e+04 # CA2-CA73 type=non-native eps=0.002390 sigma=4.000000
pair_coeff 2 141 0.000000e+00 0.000000e+00 9.272377e+04 # CA2-SC73 type=non-native eps=0.002390 sigma=4.289428
pair_coeff 2 142 0.000000e+00 0.000000e+00 4.009755e+04 # CA2-CA74 type=non-native eps=0.002390 sigma=4.000000
pair_coeff 2 143 0.000000e+00 0.000000e+00 4.009755e+04 # CA2-SC74 type=non-native eps=0.002390 sigma=4.000000
pair_coeff 2 144 0.000000e+00 0.000000e+00 4.009755e+04 # CA2-CA75 type=non-native eps=0.002390 sigma=4.000000
pair_coeff 2 145 0.000000e+00 0.000000e+00 6.317440e+04 # CA2-SC75 type=non-native eps=0.002390 sigma=4.154435
pair_coeff 2 146 0.000000e+00 0.000000e+00 4.009755e+04 # CA2-CA76 type=non-native eps=0.002390 sigma=4.000000
pair_coeff 2 147 0.000000e+00 0.000000e+00 2.286802e+04 # CA2-SC76 type=non-native eps=0.002390 sigma=3.817121
pair_coeff 2 148 0.000000e+00 0.000000e+00 4.009755e+04 # CA2-CA77 type=non-native eps=0.002390 sigma=4.000000
pair_coeff 2 149 0.000000e+00 0.000000e+00 9.272377e+04 # CA2-SC77 type=non-native eps=0.002390 sigma=4.289428
pair_coeff 2 150 0.000000e+00 0.000000e+00 4.009755e+04 # CA2-CA78 type=non-native eps=0.002390 sigma=4.000000
pair_coeff 2 151 0.000000e+00 0.000000e+00 4.009755e+04 # CA2-SC78 type=non-native eps=0.002390 sigma=4.000000
pair_coeff 2 152 0.000000e+00 0.000000e+00 4.009755e+04 # CA2-CA79 type=non-native eps=0.002390 sigma=4.000000
pair_coeff 2 153 0.000000e+00 0.000000e+00 6.317440e+04 # CA2-SC79 type=non-native eps=0.002390 sigma=4.154435
pair_coeff 2 154 0.000000e+00 0.000000e+00 4.009755e+04 # CA2-CA80 type=non-native eps=0.002390 sigma=4.000000
pair_coeff 2 155 0.000000e+00 0.000000e+00 1.293687e+05 # CA2-SC80 type=non-native eps=0.002390 sigma=4.410142
pair_coeff 2 156 0.000000e+00 0.000000e+00 4.009755e+04 # CA2-CA81 type=non-native eps=0.002390 sigma=4.000000
pair_coeff 2 157 0.000000e+00 0.000000e+00 6.317440e+04 # CA2-SC81 type=non-native eps=0.002390 sigma=4.154435
pair_coeff 2 158 0.000000e+00 0.000000e+00 4.009755e+04 # CA2-CA82 type=non-native eps=0.002390 sigma=4.000000
pair_coeff 2 159 0.000000e+00 0.000000e+00 3.442571e+03 # CA2-SC82 type=non-native eps=0.002390 sigma=3.259921
pair_coeff 2 160 0.000000e+00 0.000000e+00 4.009755e+04 # CA2-CA83 type=non-native eps=0.002390 sigma=4.000000
pair_coeff 2 161 0.000000e+00 0.000000e+00 1.293687e+05 # CA2-SC83 type=non-native eps=0.002390 sigma=4.410142
pair_coeff 2 162 0.000000e+00 0.000000e+00 4.009755e+04 # CA2-CA84 type=non-native eps=0.002390 sigma=4.000000
pair_coeff 2 163 0.000000e+00 0.000000e+00 1.085818e+04 # CA2-SC84 type=non-native eps=0.002390 sigma=3.587401
pair_coeff 2 164 0.000000e+00 0.000000e+00 4.009755e+04 # CA2-CA85 type=non-native eps=0.002390 sigma=4.000000
pair_coeff 2 165 0.000000e+00 0.000000e+00 1.085818e+04 # CA2-SC85 type=non-native eps=0.002390 sigma=3.587401
pair_coeff 2 166 0.000000e+00 0.000000e+00 4.009755e+04 # CA2-CA86 type=non-native eps=0.002390 sigma=4.000000
pair_coeff 2 167 0.000000e+00 0.000000e+00 1.293687e+05 # CA2-SC86 type=non-native eps=0.002390 sigma=4.410142
pair_coeff 2 168 0.000000e+00 0.000000e+00 4.009755e+04 # CA2-CA87 type=non-native eps=0.002390 sigma=4.000000
pair_coeff 2 169 0.000000e+00 0.000000e+00 6.317440e+04 # CA2-SC87 type=non-native eps=0.002390 sigma=4.154435
pair_coeff 2 170 0.000000e+00 0.000000e+00 4.009755e+04 # CA2-CA88 type=non-native eps=0.002390 sigma=4.000000
pair_coeff 2 171 0.000000e+00 0.000000e+00 4.009755e+04 # CA2-SC88 type=non-native eps=0.002390 sigma=4.000000
pair_coeff 2 172 0.000000e+00 0.000000e+00 4.009755e+04 # CA2-CA89 type=non-native eps=0.002390 sigma=4.000000
pair_coeff 2 173 0.000000e+00 0.000000e+00 1.737309e+05 # CA2-SC89 type=non-native eps=0.002390 sigma=4.519842
pair_coeff 2 174 0.000000e+00 0.000000e+00 4.009755e+04 # CA2-CA90 type=non-native eps=0.002390 sigma=4.000000
pair_coeff 2 175 0.000000e+00 0.000000e+00 3.442571e+03 # CA2-SC90 type=non-native eps=0.002390 sigma=3.259921
pair_coeff 2 176 0.000000e+00 0.000000e+00 4.009755e+04 # CA2-CA91 type=non-native eps=0.002390 sigma=4.000000
pair_coeff 2 177 0.000000e+00 0.000000e+00 2.286802e+04 # CA2-SC91 type=non-native eps=0.002390 sigma=3.817121
pair_coeff 2 178 0.000000e+00 0.000000e+00 4.009755e+04 # CA2-CA92 type=non-native eps=0.002390 sigma=4.000000
pair_coeff 2 179 0.000000e+00 0.000000e+00 2.286802e+04 # CA2-SC92 type=non-native eps=0.002390 sigma=3.817121
pair_coeff 2 180 0.000000e+00 0.000000e+00 4.009755e+04 # CA2-CA93 type=non-native eps=0.002390 sigma=4.000000
pair_coeff 2 181 0.000000e+00 0.000000e+00 2.880942e+05 # CA2-SC93 type=non-native eps=0.002390 sigma=4.714418
pair_coeff 2 182 0.000000e+00 0.000000e+00 4.009755e+04 # CA2-CA94 type=non-native eps=0.002390 sigma=4.000000
pair_coeff 2 183 0.000000e+00 0.000000e+00 6.317440e+04 # CA2-SC94 type=non-native eps=0.002390 sigma=4.154435
pair_coeff 2 184 0.000000e+00 0.000000e+00 4.009755e+04 # CA2-CA95 type=non-native eps=0.002390 sigma=4.000000
pair_coeff 2 185 0.000000e+00 0.000000e+00 4.009755e+04 # CA2-CA96 type=non-native eps=0.002390 sigma=4.000000
pair_coeff 2 186 0.000000e+00 0.000000e+00 2.286802e+04 # CA2-SC96 type=non-native eps=0.002390 sigma=3.817121
pair_coeff 2 187 0.000000e+00 0.000000e+00 4.009755e+04 # CA2-CA97 type=non-native eps=0.002390 sigma=4.000000
pair_coeff 2 188 0.000000e+00 0.000000e+00 4.009755e+04 # CA2-SC97 type=non-native eps=0.002390 sigma=4.000000
pair_coeff 2 189 0.000000e+00 0.000000e+00 4.009755e+04 # CA2-CA98 type=non-native eps=0.002390 sigma=4.000000
pair_coeff 2 190 0.000000e+00 0.000000e+00 2.286802e+04 # CA2-SC98 type=non-native eps=0.002390 sigma=3.817121
pair_coeff 2 191 0.000000e+00 0.000000e+00 4.009755e+04 # CA2-CA99 type=non-native eps=0.002390 sigma=4.000000
pair_coeff 2 192 0.000000e+00 0.000000e+00 4.009755e+04 # CA2-SC99 type=non-native eps=0.002390 sigma=4.000000
pair_coeff 2 193 0.000000e+00 0.000000e+00 4.009755e+04 # CA2-CA100 type=non-native eps=0.002390 sigma=4.000000
pair_coeff 2 194 0.000000e+00 0.000000e+00 1.085818e+04 # CA2-SC100 type=non-native eps=0.002390 sigma=3.587401
pair_coeff 2 195 0.000000e+00 0.000000e+00 4.009755e+04 # CA2-CA101 type=non-native eps=0.002390 sigma=4.000000
pair_coeff 2 196 0.000000e+00 0.000000e+00 6.317440e+04 # CA2-SC101 type=non-native eps=0.002390 sigma=4.154435
pair_coeff 2 197 0.000000e+00 0.000000e+00 4.009755e+04 # CA2-CA102 type=non-native eps=0.002390 sigma=4.000000
pair_coeff 2 198 0.000000e+00 0.000000e+00 1.085818e+04 # CA2-SC102 type=non-native eps=0.002390 sigma=3.587401
pair_coeff 2 199 0.000000e+00 0.000000e+00 4.009755e+04 # CA2-CA103 type=non-native eps=0.002390 sigma=4.000000
pair_coeff 2 200 0.000000e+00 0.000000e+00 2.286802e+04 # CA2-SC103 type=non-native eps=0.002390 sigma=3.817121
pair_coeff 2 201 0.000000e+00 0.000000e+00 4.009755e+04 # CA2-CA104 type=non-native eps=0.002390 sigma=4.000000
pair_coeff 2 202 0.000000e+00 0.000000e+00 1.085818e+04 # CA2-SC104 type=non-native eps=0.002390 sigma=3.587401
pair_coeff 2 203 0.000000e+00 0.000000e+00 4.009755e+04 # CA2-CA105 type=non-native eps=0.002390 sigma=4.000000
pair_coeff 2 204 0.000000e+00 0.000000e+00 6.317440e+04 # CA2-SC105 type=non-native eps=0.002390 sigma=4.154435
pair_coeff 2 205 0.000000e+00 0.000000e+00 4.009755e+04 # CA2-CA106 type=non-native eps=0.002390 sigma=4.000000
pair_coeff 2 206 0.000000e+00 0.000000e+00 4.009755e+04 # CA2-SC106 type=non-native eps=0.002390 sigma=4.000000
pair_coeff 2 207 0.000000e+00 0.000000e+00 4.009755e+04 # CA2-CA107 type=non-native eps=0.002390 sigma=4.000000
pair_coeff 2 208 0.000000e+00 0.000000e+00 1.085818e+04 # CA2-SC107 type=non-native eps=0.002390 sigma=3.587401
pair_coeff 3 3 0.000000e+00 0.000000e+00 1.268711e+04 # SC2-SC2 type=non-native eps=0.002390 sigma=3.634241
pair_coeff 3 4 0.000000e+00 0.000000e+00 2.286802e+04 # SC2-CA3 type=non-native eps=0.002390 sigma=3.817121
pair_coeff 3 5 0.000000e+00 0.000000e+00 2.286802e+04 # SC2-SC3 type=non-native eps=0.002390 sigma=3.817121
pair_coeff 3 6 0.000000e+00 0.000000e+00 2.286802e+04 # SC2-CA4 type=non-native eps=0.002390 sigma=3.817121
pair_coeff 3 7 0.000000e+00 0.000000e+00 2.286802e+04 # SC2-SC4 type=non-native eps=0.002390 sigma=3.817121
pair_coeff 3 8 0.000000e+00 0.000000e+00 2.286802e+04 # SC2-CA5 type=non-native eps=0.002390 sigma=3.817121
pair_coeff 3 9 0.000000e+00 0.000000e+00 1.721862e+03 # SC2-SC5 type=non-native eps=0.002390 sigma=3.077042
pair_coeff 3 10 0.000000e+00 0.000000e+00 2.286802e+04 # SC2-CA6 type=non-native eps=0.002390 sigma=3.817121
pair_coeff 3 11 0.000000e+00 0.000000e+00 5.795236e+03 # SC2-SC6 type=non-native eps=0.002390 sigma=3.404522
pair_coeff 3 12 0.000000e+00 0.000000e+00 2.286802e+04 # SC2-CA7 type=non-native eps=0.002390 sigma=3.817121
pair_coeff 3 13 0.000000e+00 0.000000e+00 1.268711e+04 # SC2-SC7 type=non-native eps=0.002390 sigma=3.634241
pair_coeff 3 14 0.000000e+00 0.000000e+00 2.286802e+04 # SC2-CA8 type=non-native eps=0.002390 sigma=3.817121
pair_coeff 3 15 0.000000e+00 0.000000e+00 3.680656e+04 # SC2-SC8 type=non-native eps=0.002390 sigma=3.971555
pair_coeff 3 16 0.000000e+00 0.000000e+00 2.286802e+04 # SC2-CA9 type=non-native eps=0.002390 sigma=3.817121
pair_coeff 3 17 0.000000e+00 0.000000e+00 3.680656e+04 # SC2-SC9 type=non-native eps=0.002390 sigma=3.971555
pair_coeff 3 18 0.000000e+00 0.000000e+00 2.286802e+04 # SC2-CA10 type=non-native eps=0.002390 sigma=3.817121
pair_coeff 3 19 0.000000e+00 0.000000e+00 3.680656e+04 # SC2-SC10 type=non-native eps=0.002390 sigma=3.971555
pair_coeff 3 20 0.000000e+00 0.000000e+00 2.286802e+04 # SC2-CA11 type=non-native eps=0.002390 sigma=3.817121
pair_coeff 3 21 0.000000e+00 0.000000e+00 2.286802e+04 # SC2-CA12 type=non-native eps=0.002390 sigma=3.817121
pair_coeff 3 22 0.000000e+00 0.000000e+00 1.268711e+04 # SC2-SC12 type=non-native eps=0.002390 sigma=3.634241
pair_coeff 3 23 0.000000e+00 0.000000e+00 2.286802e+04 # SC2-CA13 type=non-native eps=0.002390 sigma=3.817121
pair_coeff 3 24 0.000000e+00 0.000000e+00 7.782318e+04 # SC2-SC13 type=non-native eps=0.002390 sigma=4.227263
pair_coeff 3 25 0.000000e+00 0.000000e+00 2.286802e+04 # SC2-CA14 type=non-native eps=0.002390 sigma=3.817121
pair_coeff 3 26 0.000000e+00 0.000000e+00 7.782318e+04 # SC2-SC14 type=non-native eps=0.002390 sigma=4.227263
pair_coeff 3 27 0.000000e+00 0.000000e+00 2.286802e+04 # SC2-CA15 type=non-native eps=0.002390 sigma=3.817121
pair_coeff 3 28 0.000000e+00 0.000000e+00 1.721862e+03 # SC2-SC15 type=non-native eps=0.002390 sigma=3.077042
pair_coeff 3 29 0.000000e+00 0.000000e+00 2.286802e+04 # SC2-CA16 type=non-native eps=0.002390 sigma=3.817121
pair_coeff 3 30 0.000000e+00 0.000000e+00 2.286802e+04 # SC2-SC16 type=non-native eps=0.002390 sigma=3.817121
pair_coeff 3 31 0.000000e+00 0.000000e+00 2.286802e+04 # SC2-CA17 type=non-native eps=0.002390 sigma=3.817121
pair_coeff 3 32 0.000000e+00 0.000000e+00 2.286802e+04 # SC2-SC17 type=non-native eps=0.002390 sigma=3.817121
pair_coeff 3 33 0.000000e+00 0.000000e+00 2.286802e+04 # SC2-CA18 type=non-native eps=0.002390 sigma=3.817121
pair_coeff 3 34 0.000000e+00 0.000000e+00 7.782318e+04 # SC2-SC18 type=non-native eps=0.002390 sigma=4.227263
pair_coeff 3 35 0.000000e+00 0.000000e+00 2.286802e+04 # SC2-CA19 type=non-native eps=0.002390 sigma=3.817121
pair_coeff 3 36 0.000000e+00 0.000000e+00 1.721862e+03 # SC2-SC19 type=non-native eps=0.002390 sigma=3.077042
pair_coeff 3 37 0.000000e+00 0.000000e+00 2.286802e+04 # SC2-CA20 type=non-native eps=0.002390 sigma=3.817121
pair_coeff 3 38 0.000000e+00 0.000000e+00 1.268711e+04 # SC2-SC20 type=non-native eps=0.002390 sigma=3.634241
pair_coeff 3 39 0.000000e+00 0.000000e+00 2.286802e+04 # SC2-CA21 type=non-native eps=0.002390 sigma=3.817121
pair_coeff 3 40 0.000000e+00 0.000000e+00 2.286802e+04 # SC2-CA22 type=non-native eps=0.002390 sigma=3.817121
pair_coeff 3 41 0.000000e+00 0.000000e+00 3.680656e+04 # SC2-SC22 type=non-native eps=0.002390 sigma=3.971555
pair_coeff 3 42 0.000000e+00 0.000000e+00 2.286802e+04 # SC2-CA23 type=non-native eps=0.002390 sigma=3.817121
pair_coeff 3 43 0.000000e+00 0.000000e+00 1.058342e+05 # SC2-SC23 type=non-native eps=0.002390 sigma=4.336963
pair_coeff 3 44 0.000000e+00 0.000000e+00 2.286802e+04 # SC2-CA24 type=non-native eps=0.002390 sigma=3.817121
pair_coeff 3 45 0.000000e+00 0.000000e+00 2.286802e+04 # SC2-SC24 type=non-native eps=0.002390 sigma=3.817121
pair_coeff 3 46 0.000000e+00 0.000000e+00 2.286802e+04 # SC2-CA25 type=non-native eps=0.002390 sigma=3.817121
pair_coeff 3 47 0.000000e+00 0.000000e+00 3.680656e+04 # SC2-SC25 type=non-native eps=0.002390 sigma=3.971555
pair_coeff 3 48 0.000000e+00 0.000000e+00 2.286802e+04 # SC2-CA26 type=non-native eps=0.002390 sigma=3.817121
pair_coeff 3 49 0.000000e+00 0.000000e+00 1.721862e+03 # SC2-SC26 type=non-native eps=0.002390 sigma=3.077042
pair_coeff 3 50 0.000000e+00 0.000000e+00 2.286802e+04 # SC2-CA27 type=non-native eps=0.002390 sigma=3.817121
pair_coeff 3 51 0.000000e+00 0.000000e+00 5.795236e+03 # SC2-SC27 type=non-native eps=0.002390 sigma=3.404522
pair_coeff 3 52 0.000000e+00 0.000000e+00 2.286802e+04 # SC2-CA28 type=non-native eps=0.002390 sigma=3.817121
pair_coeff 3 53 0.000000e+00 0.000000e+00 2.286802e+04 # SC2-SC28 type=non-native eps=0.002390 sigma=3.817121
pair_coeff 3 54 0.000000e+00 0.000000e+00 2.286802e+04 # SC2-CA29 type=non-native eps=0.002390 sigma=3.817121
pair_coeff 3 55 0.000000e+00 0.000000e+00 2.286802e+04 # SC2-SC29 type=non-native eps=0.002390 sigma=3.817121
pair_coeff 3 56 0.000000e+00 0.000000e+00 2.286802e+04 # SC2-CA30 type=non-native eps=0.002390 sigma=3.817121
pair_coeff 3 57 0.000000e+00 0.000000e+00 2.286802e+04 # SC2-SC30 type=non-native eps=0.002390 sigma=3.817121
pair_coeff 3 58 0.000000e+00 0.000000e+00 2.286802e+04 # SC2-CA31 type=non-native eps=0.002390 sigma=3.817121
pair_coeff 3 59 0.000000e+00 0.000000e+00 1.058342e+05 # SC2-SC31 type=non-native eps=0.002390 sigma=4.336963
pair_coeff 3 60 0.000000e+00 0.000000e+00 2.286802e+04 # SC2-CA32 type=non-native eps=0.002390 sigma=3.817121
pair_coeff 3 61 0.000000e+00 0.000000e+00 5.496954e+04 # SC2-SC32 type=non-native eps=0.002390 sigma=4.106549
pair_coeff 3 62 0.000000e+00 0.000000e+00 2.286802e+04 # SC2-CA33 type=non-native eps=0.002390 sigma=3.817121
pair_coeff 3 63 0.000000e+00 0.000000e+00 5.795236e+03 # SC2-SC33 type=non-native eps=0.002390 sigma=3.404522
pair_coeff 3 64 0.000000e+00 0.000000e+00 2.286802e+04 # SC2-CA34 type=non-native eps=0.002390 sigma=3.817121
pair_coeff 3 65 0.000000e+00 0.000000e+00 7.782318e+04 # SC2-SC34 type=non-native eps=0.002390 sigma=4.227263
pair_coeff 3 66 0.000000e+00 0.000000e+00 2.286802e+04 # SC2-CA35 type=non-native eps=0.002390 sigma=3.817121
pair_coeff 3 67 0.000000e+00 0.000000e+00 1.721862e+03 # SC2-SC35 type=non-native eps=0.002390 sigma=3.077042
pair_coeff 3 68 0.000000e+00 0.000000e+00 2.286802e+04 # SC2-CA36 type=non-native eps=0.002390 sigma=3.817121
pair_coeff 3 69 0.000000e+00 0.000000e+00 2.286802e+04 # SC2-SC36 type=non-native eps=0.002390 sigma=3.817121
pair_coeff 3 70 0.000000e+00 0.000000e+00 2.286802e+04 # SC2-CA37 type=non-native eps=0.002390 sigma=3.817121
pair_coeff 3 71 0.000000e+00 0.000000e+00 3.680656e+04 # SC2-SC37 type=non-native eps=0.002390 sigma=3.971555
pair_coeff 3 72 0.000000e+00 0.000000e+00 2.286802e+04 # SC2-CA38 type=non-native eps=0.002390 sigma=3.817121
pair_coeff 3 73 0.000000e+00 0.000000e+00 1.268711e+04 # SC2-SC38 type=non-native eps=0.002390 sigma=3.634241
pair_coeff 3 74 0.000000e+00 0.000000e+00 2.286802e+04 # SC2-CA39 type=non-native eps=0.002390 sigma=3.817121
pair_coeff 3 75 0.000000e+00 0.000000e+00 1.268711e+04 # SC2-SC39 type=non-native eps=0.002390 sigma=3.634241
pair_coeff 3 76 0.000000e+00 0.000000e+00 2.286802e+04 # SC2-CA40 type=non-native eps=0.002390 sigma=3.817121
pair_coeff 3 77 0.000000e+00 0.000000e+00 7.782318e+04 # SC2-SC40 type=non-native eps=0.002390 sigma=4.227263
pair_coeff 3 78 0.000000e+00 0.000000e+00 2.286802e+04 # SC2-CA41 type=non-native eps=0.002390 sigma=3.817121
pair_coeff 3 79 0.000000e+00 0.000000e+00 1.721862e+03 # SC2-SC41 type=non-native eps=0.002390 sigma=3.077042
pair_coeff 3 80 0.000000e+00 0.000000e+00 2.286802e+04 # SC2-CA42 type=non-native eps=0.002390 sigma=3.817121
pair_coeff 3 81 0.000000e+00 0.000000e+00 7.782318e+04 # SC2-SC42 type=non-native eps=0.002390 sigma=4.227263
pair_coeff 3 82 0.000000e+00 0.000000e+00 2.286802e+04 # SC2-CA43 type=non-native eps=0.002390 sigma=3.817121
pair_coeff 3 83 0.000000e+00 0.000000e+00 3.680656e+04 # SC2-SC43 type=non-native eps=0.002390 sigma=3.971555
pair_coeff 3 84 0.000000e+00 0.000000e+00 2.286802e+04 # SC2-CA44 type=non-native eps=0.002390 sigma=3.817121
pair_coeff 3 85 0.000000e+00 0.000000e+00 3.680656e+04 # SC2-SC44 type=non-native eps=0.002390 sigma=3.971555
pair_coeff 3 86 0.000000e+00 0.000000e+00 2.286802e+04 # SC2-CA45 type=non-native eps=0.002390 sigma=3.817121
pair_coeff 3 87 0.000000e+00 0.000000e+00 2.286802e+04 # SC2-SC45 type=non-native eps=0.002390 sigma=3.817121
pair_coeff 3 88 0.000000e+00 0.000000e+00 2.286802e+04 # SC2-CA46 type=non-native eps=0.002390 sigma=3.817121
pair_coeff 3 89 0.000000e+00 0.000000e+00 1.268711e+04 # SC2-SC46 type=non-native eps=0.002390 sigma=3.634241
pair_coeff 3 90 0.000000e+00 0.000000e+00 2.286802e+04 # SC2-CA47 type=non-native eps=0.002390 sigma=3.817121
pair_coeff 3 91 0.000000e+00 0.000000e+00 1.721862e+03 # SC2-SC47 type=non-native eps=0.002390 sigma=3.077042
pair_coeff 3 92 0.000000e+00 0.000000e+00 2.286802e+04 # SC2-CA48 type=non-native eps=0.002390 sigma=3.817121
pair_coeff 3 93 0.000000e+00 0.000000e+00 2.286802e+04 # SC2-CA49 type=non-native eps=0.002390 sigma=3.817121
pair_coeff 3 94 0.000000e+00 0.000000e+00 1.268711e+04 # SC2-SC49 type=non-native eps=0.002390 sigma=3.634241
pair_coeff 3 95 0.000000e+00 0.000000e+00 2.286802e+04 # SC2-CA50 type=non-native eps=0.002390 sigma=3.817121
pair_coeff 3 96 0.000000e+00 0.000000e+00 2.286802e+04 # SC2-SC50 type=non-native eps=0.002390 sigma=3.817121
pair_coeff 3 97 0.000000e+00 0.000000e+00 2.286802e+04 # SC2-CA51 type=non-native eps=0.002390 sigma=3.817121
pair_coeff 3 98 0.000000e+00 0.000000e+00 1.058342e+05 # SC2-SC51 type=non-native eps=0.002390 sigma=4.336963
pair_coeff 3 99 0.000000e+00 0.000000e+00 2.286802e+04 # SC2-CA52 type=non-native eps=0.002390 sigma=3.817121
pair_coeff 3 100 0.000000e+00 0.000000e+00 7.782318e+04 # SC2-SC52 type=non-native eps=0.002390 sigma=4.227263
pair_coeff 3 101 0.000000e+00 0.000000e+00 2.286802e+04 # SC2-CA53 type=non-native eps=0.002390 sigma=3.817121
pair_coeff 3 102 0.000000e+00 0.000000e+00 2.286802e+04 # SC2-SC53 type=non-native eps=0.002390 sigma=3.817121
pair_coeff 3 103 0.000000e+00 0.000000e+00 2.286802e+04 # SC2-CA54 type=non-native eps=0.002390 sigma=3.817121
pair_coeff 3 104 0.000000e+00 0.000000e+00 2.286802e+04 # SC2-SC54 type=non-native eps=0.002390 sigma=3.817121
pair_coeff 3 105 0.000000e+00 0.000000e+00 2.286802e+04 # SC2-CA55 type=non-native eps=0.002390 sigma=3.817121
pair_coeff 3 106 0.000000e+00 0.000000e+00 1.268711e+04 # SC2-SC55 type=non-native eps=0.002390 sigma=3.634241
pair_coeff 3 107 0.000000e+00 0.000000e+00 2.286802e+04 # SC2-CA56 type=non-native eps=0.002390 sigma=3.817121
pair_coeff 3 108 0.000000e+00 0.000000e+00 3.680656e+04 # SC2-SC56 type=non-native eps=0.002390 sigma=3.971555
pair_coeff 3 109 0.000000e+00 0.000000e+00 2.286802e+04 # SC2-CA57 type=non-native eps=0.002390 sigma=3.817121
pair_coeff 3 110 0.000000e+00 0.000000e+00 2.286802e+04 # SC2-SC57 type=non-native eps=0.002390 sigma=3.817121
pair_coeff 3 111 0.000000e+00 0.000000e+00 2.286802e+04 # SC2-CA58 type=non-native eps=0.002390 sigma=3.817121
pair_coeff 3 112 0.000000e+00 0.000000e+00 2.286802e+04 # SC2-CA59 type=non-native eps=0.002390 sigma=3.817121
pair_coeff 3 113 0.000000e+00 0.000000e+00 7.782318e+04 # SC2-SC59 type=non-native eps=0.002390 sigma=4.227263
pair_coeff 3 114 0.000000e+00 0.000000e+00 2.286802e+04 # SC2-CA60 type=non-native eps=0.002390 sigma=3.817121
pair_coeff 3 115 0.000000e+00 0.000000e+00 1.268711e+04 # SC2-SC60 type=non-native eps=0.002390 sigma=3.634241
pair_coeff 3 116 0.000000e+00 0.000000e+00 2.286802e+04 # SC2-CA61 type=non-native eps=0.002390 sigma=3.817121
pair_coeff 3 117 0.000000e+00 0.000000e+00 1.268711e+04 # SC2-SC61 type=non-native eps=0.002390 sigma=3.634241
pair_coeff 3 118 0.000000e+00 0.000000e+00 2.286802e+04 # SC2-CA62 type=non-native eps=0.002390 sigma=3.817121
pair_coeff 3 119 0.000000e+00 0.000000e+00 5.795236e+03 # SC2-SC62 type=non-native eps=0.002390 sigma=3.404522
pair_coeff 3 120 0.000000e+00 0.000000e+00 2.286802e+04 # SC2-CA63 type=non-native eps=0.002390 sigma=3.817121
pair_coeff 3 121 0.000000e+00 0.000000e+00 1.268711e+04 # SC2-SC63 type=non-native eps=0.002390 sigma=3.634241
pair_coeff 3 122 0.000000e+00 0.000000e+00 2.286802e+04 # SC2-CA64 type=non-native eps=0.002390 sigma=3.817121
pair_coeff 3 123 0.000000e+00 0.000000e+00 3.680656e+04 # SC2-SC64 type=non-native eps=0.002390 sigma=3.971555
pair_coeff 3 124 0.000000e+00 0.000000e+00 2.286802e+04 # SC2-CA65 type=non-native eps=0.002390 sigma=3.817121
pair_coeff 3 125 0.000000e+00 0.000000e+00 1.268711e+04 # SC2-SC65 type=non-native eps=0.002390 sigma=3.634241
pair_coeff 3 126 0.000000e+00 0.000000e+00 2.286802e+04 # SC2-CA66 type=non-native eps=0.002390 sigma=3.817121
pair_coeff 3 127 0.000000e+00 0.000000e+00 5.496954e+04 # SC2-SC66 type=non-native eps=0.002390 sigma=4.106549
pair_coeff 3 128 0.000000e+00 0.000000e+00 2.286802e+04 # SC2-CA67 type=non-native eps=0.002390 sigma=3.817121
pair_coeff 3 129 0.000000e+00 0.000000e+00 2.286802e+04 # SC2-SC67 type=non-native eps=0.002390 sigma=3.817121
pair_coeff 3 130 0.000000e+00 0.000000e+00 2.286802e+04 # SC2-CA68 type=non-native eps=0.002390 sigma=3.817121
pair_coeff 3 131 0.000000e+00 0.000000e+00 2.286802e+04 # SC2-SC68 type=non-native eps=0.002390 sigma=3.817121
pair_coeff 3 132 0.000000e+00 0.000000e+00 2.286802e+04 # SC2-CA69 type=non-native eps=0.002390 sigma=3.817121
pair_coeff 3 133 0.000000e+00 0.000000e+00 2.286802e+04 # SC2-SC69 type=non-native eps=0.002390 sigma=3.817121
pair_coeff 3 134 0.000000e+00 0.000000e+00 2.286802e+04 # SC2-CA70 type=non-native eps=0.002390 sigma=3.817121
pair_coeff 3 135 0.000000e+00 0.000000e+00 5.795236e+03 # SC2-SC70 type=non-native eps=0.002390 sigma=3.404522
pair_coeff 3 136 0.000000e+00 0.000000e+00 2.286802e+04 # SC2-CA71 type=non-native eps=0.002390 sigma=3.817121
pair_coeff 3 137 0.000000e+00 0.000000e+00 1.268711e+04 # SC2-SC71 type=non-native eps=0.002390 sigma=3.634241
pair_coeff 3 138 0.000000e+00 0.000000e+00 2.286802e+04 # SC2-CA72 type=non-native eps=0.002390 sigma=3.817121
pair_coeff 3 139 0.000000e+00 0.000000e+00 7.782318e+04 # SC2-SC72 type=non-native eps=0.002390 sigma=4.227263
pair_coeff 3 140 0.000000e+00 0.000000e+00 2.286802e+04 # SC2-CA73 type=non-native eps=0.002390 sigma=3.817121
pair_coeff 3 141 0.000000e+00 0.000000e+00 5.496954e+04 # SC2-SC73 type=non-native eps=0.002390 sigma=4.106549
pair_coeff 3 142 0.000000e+00 0.000000e+00 2.286802e+04 # SC2-CA74 type=non-native eps=0.002390 sigma=3.817121
pair_coeff 3 143 0.000000e+00 0.000000e+00 2.286802e+04 # SC2-SC74 type=non-native eps=0.002390 sigma=3.817121
pair_coeff 3 144 0.000000e+00 0.000000e+00 2.286802e+04 # SC2-CA75 type=non-native eps=0.002390 sigma=3.817121
pair_coeff 3 145 0.000000e+00 0.000000e+00 3.680656e+04 # SC2-SC75 type=non-native eps=0.002390 sigma=3.971555
pair_coeff 3 146 0.000000e+00 0.000000e+00 2.286802e+04 # SC2-CA76 type=non-native eps=0.002390 sigma=3.817121
pair_coeff 3 147 0.000000e+00 0.000000e+00 1.268711e+04 # SC2-SC76 type=non-native eps=0.002390 sigma=3.634241
pair_coeff 3 148 0.000000e+00 0.000000e+00 2.286802e+04 # SC2-CA77 type=non-native eps=0.002390 sigma=3.817121
pair_coeff 3 149 0.000000e+00 0.000000e+00 5.496954e+04 # SC2-SC77 type=non-native eps=0.002390 sigma=4.106549
pair_coeff 3 150 0.000000e+00 0.000000e+00 2.286802e+04 # SC2-CA78 type=non-native eps=0.002390 sigma=3.817121
pair_coeff 3 151 0.000000e+00 0.000000e+00 2.286802e+04 # SC2-SC78 type=non-native eps=0.002390 sigma=3.817121
pair_coeff 3 152 0.000000e+00 0.000000e+00 2.286802e+04 # SC2-CA79 type=non-native eps=0.002390 sigma=3.817121
pair_coeff 3 153 0.000000e+00 0.000000e+00 3.680656e+04 # SC2-SC79 type=non-native eps=0.002390 sigma=3.971555
pair_coeff 3 154 0.000000e+00 0.000000e+00 2.286802e+04 # SC2-CA80 type=non-native eps=0.002390 sigma=3.817121
pair_coeff 3 155 0.000000e+00 0.000000e+00 7.782318e+04 # SC2-SC80 type=non-native eps=0.002390 sigma=4.227263
pair_coeff 3 156 0.000000e+00 0.000000e+00 2.286802e+04 # SC2-CA81 type=non-native eps=0.002390 sigma=3.817121
pair_coeff 3 157 0.000000e+00 0.000000e+00 3.680656e+04 # SC2-SC81 type=non-native eps=0.002390 sigma=3.971555
pair_coeff 3 158 0.000000e+00 0.000000e+00 2.286802e+04 # SC2-CA82 type=non-native eps=0.002390 sigma=3.817121
pair_coeff 3 159 0.000000e+00 0.000000e+00 1.721862e+03 # SC2-SC82 type=non-native eps=0.002390 sigma=3.077042
pair_coeff 3 160 0.000000e+00 0.000000e+00 2.286802e+04 # SC2-CA83 type=non-native eps=0.002390 sigma=3.817121
pair_coeff 3 161 0.000000e+00 0.000000e+00 7.782318e+04 # SC2-SC83 type=non-native eps=0.002390 sigma=4.227263
pair_coeff 3 162 0.000000e+00 0.000000e+00 2.286802e+04 # SC2-CA84 type=non-native eps=0.002390 sigma=3.817121
pair_coeff 3 163 0.000000e+00 0.000000e+00 5.795236e+03 # SC2-SC84 type=non-native eps=0.002390 sigma=3.404522
pair_coeff 3 164 0.000000e+00 0.000000e+00 2.286802e+04 # SC2-CA85 type=non-native eps=0.002390 sigma=3.817121
pair_coeff 3 165 0.000000e+00 0.000000e+00 5.795236e+03 # SC2-SC85 type=non-native eps=0.002390 sigma=3.404522
pair_coeff 3 166 0.000000e+00 0.000000e+00 2.286802e+04 # SC2-CA86 type=non-native eps=0.002390 sigma=3.817121
pair_coeff 3 167 0.000000e+00 0.000000e+00 7.782318e+04 # SC2-SC86 type=non-native eps=0.002390 sigma=4.227263
pair_coeff 3 168 0.000000e+00 0.000000e+00 2.286802e+04 # SC2-CA87 type=non-native eps=0.002390 sigma=3.817121
pair_coeff 3 169 0.000000e+00 0.000000e+00 3.680656e+04 # SC2-SC87 type=non-native eps=0.002390 sigma=3.971555
pair_coeff 3 170 0.000000e+00 0.000000e+00 2.286802e+04 # SC2-CA88 type=non-native eps=0.002390 sigma=3.817121
pair_coeff 3 171 0.000000e+00 0.000000e+00 2.286802e+04 # SC2-SC88 type=non-native eps=0.002390 sigma=3.817121
pair_coeff 3 172 0.000000e+00 0.000000e+00 2.286802e+04 # SC2-CA89 type=non-native eps=0.002390 sigma=3.817121
pair_coeff 3 173 0.000000e+00 0.000000e+00 1.058342e+05 # SC2-SC89 type=non-native eps=0.002390 sigma=4.336963
pair_coeff 3 174 0.000000e+00 0.000000e+00 2.286802e+04 # SC2-CA90 type=non-native eps=0.002390 sigma=3.817121
pair_coeff 3 175 0.000000e+00 0.000000e+00 1.721862e+03 # SC2-SC90 type=non-native eps=0.002390 sigma=3.077042
pair_coeff 3 176 0.000000e+00 0.000000e+00 2.286802e+04 # SC2-CA91 type=non-native eps=0.002390 sigma=3.817121
pair_coeff 3 177 0.000000e+00 0.000000e+00 1.268711e+04 # SC2-SC91 type=non-native eps=0.002390 sigma=3.634241
pair_coeff 3 178 0.000000e+00 0.000000e+00 2.286802e+04 # SC2-CA92 type=non-native eps=0.002390 sigma=3.817121
pair_coeff 3 179 0.000000e+00 0.000000e+00 1.268711e+04 # SC2-SC92 type=non-native eps=0.002390 sigma=3.634241
pair_coeff 3 180 0.000000e+00 0.000000e+00 2.286802e+04 # SC2-CA93 type=non-native eps=0.002390 sigma=3.817121
pair_coeff 3 181 0.000000e+00 0.000000e+00 1.792032e+05 # SC2-SC93 type=non-native eps=0.002390 sigma=4.531538
pair_coeff 3 182 0.000000e+00 0.000000e+00 2.286802e+04 # SC2-CA94 type=non-native eps=0.002390 sigma=3.817121
pair_coeff 3 183 0.000000e+00 0.000000e+00 3.680656e+04 # SC2-SC94 type=non-native eps=0.002390 sigma=3.971555
pair_coeff 3 184 0.000000e+00 0.000000e+00 2.286802e+04 # SC2-CA95 type=non-native eps=0.002390 sigma=3.817121
pair_coeff 3 185 0.000000e+00 0.000000e+00 2.286802e+04 # SC2-CA96 type=non-native eps=0.002390 sigma=3.817121
pair_coeff 3 186 0.000000e+00 0.000000e+00 1.268711e+04 # SC2-SC96 type=non-native eps=0.002390 sigma=3.634241
pair_coeff 3 187 0.000000e+00 0.000000e+00 2.286802e+04 # SC2-CA97 type=non-native eps=0.002390 sigma=3.817121
pair_coeff 3 188 0.000000e+00 0.000000e+00 2.286802e+04 # SC2-SC97 type=non-native eps=0.002390 sigma=3.817121
pair_coeff 3 189 0.000000e+00 0.000000e+00 2.286802e+04 # SC2-CA98 type=non-native eps=0.002390 sigma=3.817121
pair_coeff 3 190 0.000000e+00 0.000000e+00 1.268711e+04 # SC2-SC98 type=non-native eps=0.002390 sigma=3.634241
pair_coeff 3 191 0.000000e+00 0.000000e+00 2.286802e+04 # SC2-CA99 type=non-native eps=0.002390 sigma=3.817121
pair_coeff 3 192 0.000000e+00 0.000000e+00 2.286802e+04 # SC2-SC99 type=non-native eps=0.002390 sigma=3.817121
pair_coeff 3 193 0.000000e+00 0.000000e+00 2.286802e+04 # SC2-CA100 type=non-native eps=0.002390 sigma=3.817121
pair_coeff 3 194 0.000000e+00 0.000000e+00 5.795236e+03 # SC2-SC100 type=non-native eps=0.002390 sigma=3.404522
pair_coeff 3 195 0.000000e+00 0.000000e+00 2.286802e+04 # SC2-CA101 type=non-native eps=0.002390 sigma=3.817121
pair_coeff 3 196 0.000000e+00 0.000000e+00 3.680656e+04 # SC2-SC101 type=non-native eps=0.002390 sigma=3.971555
pair_coeff 3 197 0.000000e+00 0.000000e+00 2.286802e+04 # SC2-CA102 type=non-native eps=0.002390 sigma=3.817121
pair_coeff 3 198 0.000000e+00 0.000000e+00 5.795236e+03 # SC2-SC102 type=non-native eps=0.002390 sigma=3.404522
pair_coeff 3 199 0.000000e+00 0.000000e+00 2.286802e+04 # SC2-CA103 type=non-native eps=0.002390 sigma=3.817121
pair_coeff 3 200 0.000000e+00 0.000000e+00 1.268711e+04 # SC2-SC103 type=non-native eps=0.002390 sigma=3.634241
pair_coeff 3 201 0.000000e+00 0.000000e+00 2.286802e+04 # SC2-CA104 type=non-native eps=0.002390 sigma=3.817121
pair_coeff 3 202 0.000000e+00 0.000000e+00 5.795236e+03 # SC2-SC104 type=non-native eps=0.002390 sigma=3.404522
pair_coeff 3 203 0.000000e+00 0.000000e+00 2.286802e+04 # SC2-CA105 type=non-native eps=0.002390 sigma=3.817121
pair_coeff 3 204 0.000000e+00 0.000000e+00 3.680656e+04 # SC2-SC105 type=non-native eps=0.002390 sigma=3.971555
pair_coeff 3 205 0.000000e+00 0.000000e+00 2.286802e+04 # SC2-CA106 type=non-native eps=0.002390 sigma=3.817121
pair_coeff 3 206 0.000000e+00 0.000000e+00 2.286802e+04 # SC2-SC106 type=non-native eps=0.002390 sigma=3.817121
pair_coeff 3 207 0.000000e+00 0.000000e+00 2.286802e+04 # SC2-CA107 type=non-native eps=0.002390 sigma=3.817121
pair_coeff 3 208 0.000000e+00 0.000000e+00 5.795236e+03 # SC2-SC107 type=non-native eps=0.002390 sigma=3.404522
pair_coeff 4 4 0.000000e+00 0.000000e+00 4.009755e+04 # CA3-CA3 type=non-native eps=0.002390 sigma=4.000000
pair_coeff 4 5 0.000000e+00 0.000000e+00 4.009755e+04 # CA3-SC3 type=non-native eps=0.002390 sigma=4.000000
pair_coeff 4 6 0.000000e+00 0.000000e+00 4.009755e+04 # CA3-CA4 type=non-native eps=0.002390 sigma=4.000000
pair_coeff 4 7 0.000000e+00 0.000000e+00 4.009755e+04 # CA3-SC4 type=non-native eps=0.002390 sigma=4.000000
pair_coeff 4 8 0.000000e+00 0.000000e+00 4.009755e+04 # CA3-CA5 type=non-native eps=0.002390 sigma=4.000000
pair_coeff 4 9 0.000000e+00 0.000000e+00 3.442571e+03 # CA3-SC5 type=non-native eps=0.002390 sigma=3.259921
pair_coeff 4 10 0.000000e+00 0.000000e+00 4.009755e+04 # CA3-CA6 type=non-native eps=0.002390 sigma=4.000000
pair_coeff 4 11 0.000000e+00 0.000000e+00 1.085818e+04 # CA3-SC6 type=non-native eps=0.002390 sigma=3.587401
pair_coeff 4 12 0.000000e+00 0.000000e+00 4.009755e+04 # CA3-CA7 type=non-native eps=0.002390 sigma=4.000000
pair_coeff 4 13 0.000000e+00 0.000000e+00 2.286802e+04 # CA3-SC7 type=non-native eps=0.002390 sigma=3.817121
pair_coeff 4 14 0.000000e+00 0.000000e+00 4.009755e+04 # CA3-CA8 type=non-native eps=0.002390 sigma=4.000000
pair_coeff 4 15 0.000000e+00 0.000000e+00 6.317440e+04 # CA3-SC8 type=non-native eps=0.002390 sigma=4.154435
pair_coeff 4 16 0.000000e+00 0.000000e+00 4.009755e+04 # CA3-CA9 type=non-native eps=0.002390 sigma=4.000000
pair_coeff 4 17 0.000000e+00 0.000000e+00 6.317440e+04 # CA3-SC9 type=non-native eps=0.002390 sigma=4.154435
pair_coeff 4 18 0.000000e+00 0.000000e+00 4.009755e+04 # CA3-CA10 type=non-native eps=0.002390 sigma=4.000000
pair_coeff 4 19 0.000000e+00 0.000000e+00 6.317440e+04 # CA3-SC10 type=non-native eps=0.002390 sigma=4.154435
pair_coeff 4 20 0.000000e+00 0.000000e+00 4.009755e+04 # CA3-CA11 type=non-native eps=0.002390 sigma=4.000000
pair_coeff 4 21 0.000000e+00 0.000000e+00 4.009755e+04 # CA3-CA12 type=non-native eps=0.002390 sigma=4.000000
pair_coeff 4 22 0.000000e+00 0.000000e+00 2.286802e+04 # CA3-SC12 type=non-native eps=0.002390 sigma=3.817121
pair_coeff 4 23 0.000000e+00 0.000000e+00 4.009755e+04 # CA3-CA13 type=non-native eps=0.002390 sigma=4.000000
pair_coeff 4 24 0.000000e+00 0.000000e+00 1.293687e+05 # CA3-SC13 type=non-native eps=0.002390 sigma=4.410142
pair_coeff 4 25 0.000000e+00 0.000000e+00 4.009755e+04 # CA3-CA14 type=non-native eps=0.002390 sigma=4.000000
pair_coeff 4 26 0.000000e+00 0.000000e+00 1.293687e+05 # CA3-SC14 type=non-native eps=0.002390 sigma=4.410142
pair_coeff 4 27 0.000000e+00 0.000000e+00 4.009755e+04 # CA3-CA15 type=non-native eps=0.002390 sigma=4.000000
pair_coeff 4 28 0.000000e+00 0.000000e+00 3.442571e+03 # CA3-SC15 type=non-native eps=0.002390 sigma=3.259921
pair_coeff 4 29 0.000000e+00 0.000000e+00 4.009755e+04 # CA3-CA16 type=non-native eps=0.002390 sigma=4.000000
pair_coeff 4 30 0.000000e+00 0.000000e+00 4.009755e+04 # CA3-SC16 type=non-native eps=0.002390 sigma=4.000000
pair_coeff 4 31 0.000000e+00 0.000000e+00 4.009755e+04 # CA3-CA17 type=non-native eps=0.002390 sigma=4.000000
pair_coeff 4 32 0.000000e+00 0.000000e+00 4.009755e+04 # CA3-SC17 type=non-native eps=0.002390 sigma=4.000000
pair_coeff 4 33 0.000000e+00 0.000000e+00 4.009755e+04 # CA3-CA18 type=non-native eps=0.002390 sigma=4.000000
pair_coeff 4 34 0.000000e+00 0.000000e+00 1.293687e+05 # CA3-SC18 type=non-native eps=0.002390 sigma=4.410142
pair_coeff 4 35 0.000000e+00 0.000000e+00 4.009755e+04 # CA3-CA19 type=non-native eps=0.002390 sigma=4.000000
pair_coeff 4 36 0.000000e+00 0.000000e+00 3.442571e+03 # CA3-SC19 type=non-native eps=0.002390 sigma=3.259921
pair_coeff 4 37 0.000000e+00 0.000000e+00 4.009755e+04 # CA3-CA20 type=non-native eps=0.002390 sigma=4.000000
pair_coeff 4 38 0.000000e+00 0.000000e+00 2.286802e+04 # CA3-SC20 type=non-native eps=0.002390 sigma=3.817121
pair_coeff 4 39 0.000000e+00 0.000000e+00 4.009755e+04 # CA3-CA21 type=non-native eps=0.002390 sigma=4.000000
pair_coeff 4 40 0.000000e+00 0.000000e+00 4.009755e+04 # CA3-CA22 type=non-native eps=0.002390 sigma=4.000000
pair_coeff 4 41 0.000000e+00 0.000000e+00 6.317440e+04 # CA3-SC22 type=non-native eps=0.002390 sigma=4.154435
pair_coeff 4 42 0.000000e+00 0.000000e+00 4.009755e+04 # CA3-CA23 type=non-native eps=0.002390 sigma=4.000000
pair_coeff 4 43 0.000000e+00 0.000000e+00 1.737309e+05 # CA3-SC23 type=non-native eps=0.002390 sigma=4.519842
pair_coeff 4 44 0.000000e+00 0.000000e+00 4.009755e+04 # CA3-CA24 type=non-native eps=0.002390 sigma=4.000000
pair_coeff 4 45 0.000000e+00 0.000000e+00 4.009755e+04 # CA3-SC24 type=non-native eps=0.002390 sigma=4.000000
pair_coeff 4 46 0.000000e+00 0.000000e+00 4.009755e+04 # CA3-CA25 type=non-native eps=0.002390 sigma=4.000000
pair_coeff 4 47 0.000000e+00 0.000000e+00 6.317440e+04 # CA3-SC25 type=non-native eps=0.002390 sigma=4.154435
pair_coeff 4 48 0.000000e+00 0.000000e+00 4.009755e+04 # CA3-CA26 type=non-native eps=0.002390 sigma=4.000000
pair_coeff 4 49 0.000000e+00 0.000000e+00 3.442571e+03 # CA3-SC26 type=non-native eps=0.002390 sigma=3.259921
pair_coeff 4 50 0.000000e+00 0.000000e+00 4.009755e+04 # CA3-CA27 type=non-native eps=0.002390 sigma=4.000000
pair_coeff 4 51 0.000000e+00 0.000000e+00 1.085818e+04 # CA3-SC27 type=non-native eps=0.002390 sigma=3.587401
pair_coeff 4 52 0.000000e+00 0.000000e+00 4.009755e+04 # CA3-CA28 type=non-native eps=0.002390 sigma=4.000000
pair_coeff 4 53 0.000000e+00 0.000000e+00 4.009755e+04 # CA3-SC28 type=non-native eps=0.002390 sigma=4.000000
pair_coeff 4 54 0.000000e+00 0.000000e+00 4.009755e+04 # CA3-CA29 type=non-native eps=0.002390 sigma=4.000000
pair_coeff 4 55 0.000000e+00 0.000000e+00 4.009755e+04 # CA3-SC29 type=non-native eps=0.002390 sigma=4.000000
pair_coeff 4 56 0.000000e+00 0.000000e+00 4.009755e+04 # CA3-CA30 type=non-native eps=0.002390 sigma=4.000000
pair_coeff 4 57 0.000000e+00 0.000000e+00 4.009755e+04 # CA3-SC30 type=non-native eps=0.002390 sigma=4.000000
pair_coeff 4 58 0.000000e+00 0.000000e+00 4.009755e+04 # CA3-CA31 type=non-native eps=0.002390 sigma=4.000000
pair_coeff 4 59 0.000000e+00 0.000000e+00 1.737309e+05 # CA3-SC31 type=non-native eps=0.002390 sigma=4.519842
pair_coeff 4 60 0.000000e+00 0.000000e+00 4.009755e+04 # CA3-CA32 type=non-native eps=0.002390 sigma=4.000000
pair_coeff 4 61 0.000000e+00 0.000000e+00 9.272377e+04 # CA3-SC32 type=non-native eps=0.002390 sigma=4.289428
pair_coeff 4 62 0.000000e+00 0.000000e+00 4.009755e+04 # CA3-CA33 type=non-native eps=0.002390 sigma=4.000000
pair_coeff 4 63 0.000000e+00 0.000000e+00 1.085818e+04 # CA3-SC33 type=non-native eps=0.002390 sigma=3.587401
pair_coeff 4 64 0.000000e+00 0.000000e+00 4.009755e+04 # CA3-CA34 type=non-native eps=0.002390 sigma=4.000000
pair_coeff 4 65 0.000000e+00 0.000000e+00 1.293687e+05 # CA3-SC34 type=non-native eps=0.002390 sigma=4.410142
pair_coeff 4 66 0.000000e+00 0.000000e+00 4.009755e+04 # CA3-CA35 type=non-native eps=0.002390 sigma=4.000000
pair_coeff 4 67 0.000000e+00 0.000000e+00 3.442571e+03 # CA3-SC35 type=non-native eps=0.002390 sigma=3.259921
pair_coeff 4 68 0.000000e+00 0.000000e+00 4.009755e+04 # CA3-CA36 type=non-native eps=0.002390 sigma=4.000000
pair_coeff 4 69 0.000000e+00 0.000000e+00 4.009755e+04 # CA3-SC36 type=non-native eps=0.002390 sigma=4.000000
pair_coeff 4 70 0.000000e+00 0.000000e+00 4.009755e+04 # CA3-CA37 type=non-native eps=0.002390 sigma=4.000000
pair_coeff 4 71 0.000000e+00 0.000000e+00 6.317440e+04 # CA3-SC37 type=non-native eps=0.002390 sigma=4.154435
pair_coeff 4 72 0.000000e+00 0.000000e+00 4.009755e+04 # CA3-CA38 type=non-native eps=0.002390 sigma=4.000000
pair_coeff 4 73 0.000000e+00 0.000000e+00 2.286802e+04 # CA3-SC38 type=non-native eps=0.002390 sigma=3.817121
pair_coeff 4 74 0.000000e+00 0.000000e+00 4.009755e+04 # CA3-CA39 type=non-native eps=0.002390 sigma=4.000000
pair_coeff 4 75 0.000000e+00 0.000000e+00 2.286802e+04 # CA3-SC39 type=non-native eps=0.002390 sigma=3.817121
pair_coeff 4 76 0.000000e+00 0.000000e+00 4.009755e+04 # CA3-CA40 type=non-native eps=0.002390 sigma=4.000000
pair_coeff 4 77 0.000000e+00 0.000000e+00 1.293687e+05 # CA3-SC40 type=non-native eps=0.002390 sigma=4.410142
pair_coeff 4 78 0.000000e+00 0.000000e+00 4.009755e+04 # CA3-CA41 type=non-native eps=0.002390 sigma=4.000000
pair_coeff 4 79 0.000000e+00 0.000000e+00 3.442571e+03 # CA3-SC41 type=non-native eps=0.002390 sigma=3.259921
pair_coeff 4 80 0.000000e+00 0.000000e+00 4.009755e+04 # CA3-CA42 type=non-native eps=0.002390 sigma=4.000000
pair_coeff 4 81 0.000000e+00 0.000000e+00 1.293687e+05 # CA3-SC42 type=non-native eps=0.002390 sigma=4.410142
pair_coeff 4 82 0.000000e+00 0.000000e+00 4.009755e+04 # CA3-CA43 type=non-native eps=0.002390 sigma=4.000000
pair_coeff 4 83 0.000000e+00 0.000000e+00 6.317440e+04 # CA3-SC43 type=non-native eps=0.002390 sigma=4.154435
pair_coeff 4 84 0.000000e+00 0.000000e+00 4.009755e+04 # CA3-CA44 type=non-native eps=0.002390 sigma=4.000000
pair_coeff 4 85 0.000000e+00 0.000000e+00 6.317440e+04 # CA3-SC44 type=non-native eps=0.002390 sigma=4.154435
pair_coeff 4 86 0.000000e+00 0.000000e+00 4.009755e+04 # CA3-CA45 type=non-native eps=0.002390 sigma=4.000000
pair_coeff 4 87 0.000000e+00 0.000000e+00 4.009755e+04 # CA3-SC45 type=non-native eps=0.002390 sigma=4.000000
pair_coeff 4 88 0.000000e+00 0.000000e+00 4.009755e+04 # CA3-CA46 type=non-native eps=0.002390 sigma=4.000000
pair_coeff 4 89 0.000000e+00 0.000000e+00 2.286802e+04 # CA3-SC46 type=non-native eps=0.002390 sigma=3.817121
pair_coeff 4 90 0.000000e+00 0.000000e+00 4.009755e+04 # CA3-CA47 type=non-native eps=0.002390 sigma=4.000000
pair_coeff 4 91 0.000000e+00 0.000000e+00 3.442571e+03 # CA3-SC47 type=non-native eps=0.002390 sigma=3.259921
pair_coeff 4 92 0.000000e+00 0.000000e+00 4.009755e+04 # CA3-CA48 type=non-native eps=0.002390 sigma=4.000000
pair_coeff 4 93 0.000000e+00 0.000000e+00 4.009755e+04 # CA3-CA49 type=non-native eps=0.002390 sigma=4.000000
[...]
 4788000    5.6070541   -7.3641705   -10.104897    1.0773676     1.068524   0.59483536 
 4789000    5.2437515   -7.3210349   -10.118733    1.0739709    1.1144948    0.6092325 
 4790000    4.9810529   -7.1237893   -10.087956    1.0808719    1.1169546    0.7663401 
 4791000    5.0079986   -7.1211415   -10.065044    1.0709788    1.1929649   0.67995838 
 4792000    5.1194719   -7.3462393    -10.14001     1.030104    1.0757646   0.68790234 
 4793000    5.3183062   -7.4344866   -10.127407   0.81774616    1.1727991   0.70237495 
 4794000    5.5265849   -7.1936499   -10.085172    1.0549073    1.2107435   0.62587088 
 4795000    5.1218369   -7.1669729   -10.078348    1.0261821    1.2416035    0.6435892 
 4796000    4.9989101   -6.9082025   -10.076037    1.1175189     1.161854   0.88846176 
 4797000    5.4546178   -7.1981189   -10.018892   0.88999842    1.2504326   0.68034219 
 4798000    5.3597682   -7.1347895   -10.062771     1.038049    1.2309921   0.65894004 
 4799000    4.9057892   -6.9202798   -9.9869369    1.2279959    1.1377725   0.70088875 
 4800000    5.2174401   -7.1305366   -10.042471    1.1347172    1.1532454   0.62397228 
 4801000    5.2620105   -7.0598238   -10.038048    1.1940693    1.1226555   0.66149902 
 4802000    4.9216432   -7.2112171   -10.067625     1.140448   0.98252852   0.73343135 
 4803000    4.9155563   -7.2192638   -10.048719   0.97929466    1.0771457   0.77301506 
 4804000    4.5899148   -7.0616897   -9.9981398    1.0067804    1.2276821    0.7019876 
 4805000    4.9580521   -7.0546613   -9.9869689   0.99207824    1.3080817   0.63214766 
 4806000    4.5436948   -6.7568228   -10.007018    1.1296975    1.2707274   0.84976984 
 4807000    5.1078153    -7.187769   -10.001339    1.0802221    1.1753811   0.55796667 
 4808000    4.7353919   -7.2217167   -10.021674   0.88547952    1.1541778   0.76030039 
 4809000    5.0893919     -7.05098   -10.015807   0.91731696    1.3561012   0.69140907 
 4810000    4.8823674   -7.0666351   -10.065772   0.87026252    1.2846315   0.84424295 
 4811000    4.9862122   -7.0505524   -10.000598    1.0267887    1.2664054   0.65685184 
 4812000    4.8448611   -7.0904602   -10.017974   0.90653422    1.2858764   0.73510358 
 4813000    5.0878895   -7.0199518   -10.004387    1.1492192    1.1522518   0.68296452 
 4814000    5.1958659   -7.1182834   -9.9906598    1.1183028    1.0880937   0.66597986 
 4815000    4.8490301   -7.1275656   -10.002241    1.1145402    1.1739509   0.58618474 
 4816000    4.8767062   -7.0146844   -10.075979    1.1038738     1.271728   0.68569273 
 4817000    5.3057551    -7.142125   -10.098895    1.2337416    1.1445673   0.57846122 
 4818000    5.2618703   -7.1062217   -10.064227    1.1851325    1.1055743   0.66729818 
 4819000    5.2568388   -7.1743446   -10.051558    1.2593498    1.0441307   0.57373341 
 4820000    5.0147807    -7.055876   -10.094102    1.0640499    1.2728173   0.70135891 
 4821000    5.1211124   -7.1579945   -10.093381    1.2102402    1.1207598   0.60438655 
 4822000    4.8444064    -7.017448   -10.081623    1.1043878    1.3188658   0.64092129 
 4823000    5.1173351    -7.337837   -10.121736    1.0702501    1.1616488   0.55200009 
 4824000    4.8506196   -7.1797798   -10.077629    1.0543771     1.141689   0.70178285 
 4825000    5.3544253   -7.1482546   -10.133606   0.96498491    1.2149069   0.80545984 
 4826000    5.2250626    -7.369363     -10.1142   0.99120043    1.0487881   0.70484839 
 4827000    4.8954853   -7.3760941   -10.012325    0.9223786    1.1037861   0.61006597 
 4828000    5.0343729   -7.2981531   -10.096303   0.94120927    1.2007478   0.65619263 
 4829000    5.4591792   -7.2374608   -10.043303    0.9461798    1.0917591   0.76790351 
 4830000    5.1551076   -7.0863336   -9.9935622   0.94564829    1.3051551   0.65642526 
 4831000    5.1423158   -7.1175109   -10.098895   0.98283796    1.3416349     0.656911 
 4832000     5.398989   -6.9203946   -9.9932288   0.96534782    1.4726303   0.63485607 
 4833000    5.2345583   -6.5870305   -10.005181    1.3532812    1.3900787   0.67479019 
 4834000    5.2578267   -6.8177527   -10.011659    1.1140681    1.4325289   0.64730942 
 4835000    5.5308246   -7.2108769   -10.070174   0.92754203     1.112345   0.81941024 
 4836000    4.9001323   -7.2530884   -10.012732   0.93849827    1.1832266   0.63791896 
 4837000    4.8211198   -7.2989791   -10.112071   0.96396474    1.1367687   0.71235801 
 4838000    4.6998478   -7.3027585   -10.057553   0.93895547    1.2670682   0.54877099 
 4839000    4.9026992   -7.0822875   -10.101798    1.1436013    1.2097918   0.66611775 
 4840000     4.708971   -7.0286772   -10.066762    1.1734273     1.169137   0.69552067 
 4841000    4.8155177   -6.9613351   -10.077344    1.1527737    1.2077564   0.75547876 
 4842000    5.5135444   -7.1171401   -10.093312     1.084382     1.269773    0.6220164 
 4843000    5.8843661    -7.127633   -9.9970883    1.0460392    1.2190658   0.60435033 
 4844000    5.4135086   -7.1177912   -10.086642    1.0399721    1.2223788   0.70649944 
 4845000    5.4185422   -7.1386671   -10.073347   0.93055183    1.1988336   0.80529473 
 4846000    5.7169787   -7.3480698   -10.043199   0.93441516    1.1459671   0.61474735 
 4847000     4.891444   -7.0400405   -10.070949    1.1366053    1.2629656   0.63133785 
 4848000      4.76784   -7.1191244   -10.086491    1.0484521    1.2072143   0.71170032 
 4849000     5.177082   -7.3582414    -10.09126    1.0436621    1.0089648   0.68039204 
 4850000    4.9054789   -7.2410121    -10.07429   0.89341042    1.2017578   0.73810995 
 4851000    4.9043788   -7.1951674   -10.092374   0.99887065    1.1567075   0.74162821 
 4852000    5.2459026   -7.3443245   -10.119675    1.0044385    1.0892168   0.68169541 
 4853000     4.597183   -7.1438739   -10.085301    1.0078445    1.2647368   0.66884598 
 4854000    5.3493706   -7.3330688   -10.086399    0.9259907    1.1158537   0.71148614 
 4855000    5.0774713   -7.1812086   -10.063225    1.0563737    1.1745309   0.65111159 
 4856000      4.94497    -7.028993   -10.076353    1.0449206     1.158347   0.84409277 
 4857000    4.8673144   -7.0537495   -10.048119   0.93223489     1.245557   0.81657732 
 4858000    5.5388298   -7.6069879   -10.116859   0.83481766    1.0836677   0.59138592 
 4859000    5.3250469   -7.1399355   -10.105971   0.97136465    1.2504304   0.74424008 
 4860000    4.7475437   -6.9760046    -10.08645   0.97548107    1.2727227   0.86224135 
 4861000    5.1390279   -7.2591615   -10.101926   0.98897643    1.1816752   0.67211321 
 4862000    4.9143438   -7.1994403   -10.112671    1.0250543    1.1959609   0.69221583 
 4863000    4.8047073   -7.3517752   -10.104461   0.91692548    1.0396709   0.79608942 
 4864000    4.9056518   -7.1549226   -10.047382    0.9859983    1.1743569   0.73210434 
 4865000    5.3588864   -7.2597479     -10.0681    1.0133292    1.1927711   0.60225221 
 4866000    5.4029014   -7.2765988   -10.120964    1.0519923    1.1151919   0.67718093 
 4867000    4.8671435   -7.1649282   -10.081431    1.1473898    1.0964957   0.67261713 
 4868000     5.143818   -7.1692588   -10.059102   0.83768911    1.3121274    0.7400269 
 4869000    5.0659594   -7.0297679   -10.091885    1.1030289    1.3731218   0.58596622 
 4870000    5.1170944     -6.91172   -10.086031    1.0109358    1.4941609   0.66921421 
 4871000    4.9613862   -6.8957047   -10.100973    1.1710941    1.2718446   0.76233003 
 4872000     5.095103   -7.1219157    -10.09747    1.0473877    1.2189302   0.70923655 
 4873000    5.2896471    -6.938888   -10.111037    1.1114942    1.3054973   0.75515734 
 4874000    5.0575975   -7.0433127   -10.046971     1.174149     1.070426    0.7590831 
 4875000    5.4965591   -7.2720096   -10.073604   0.99062258    1.1398931   0.67107869 
 4876000    5.4637359   -7.1569098   -10.087214    1.1743326    1.0283404    0.7276309 
 4877000    5.3889651   -6.9832737   -10.062946    1.0815558    1.2851458   0.71297068 
 4878000    5.4072743   -6.9983006   -10.028183    1.0162731    1.2584361   0.75517296 
 4879000    4.9534614   -7.0875581   -10.013639    1.0324964    1.1930083   0.70057631 
 4880000    5.1293776   -6.9347633   -10.082591    1.1744667    1.3260042   0.64735641 
 4881000    5.2815576   -6.9829654   -10.001981    1.0664955    1.2163184   0.73620157 
 4882000    5.0695578   -7.1608016   -10.017299    1.0449164     1.182032   0.62954926 
 4883000    5.1220617   -7.3519717   -10.124973     1.051798    1.0579386   0.66326477 
 4884000    5.2743877   -7.1543931   -10.064479   0.97280598    1.3164888   0.62079108 
 4885000    5.1947377   -7.1020817   -9.9919948    1.0598421    1.2436809   0.58639004 
 4886000    5.2016997   -7.1350889   -9.9449365   0.96595135    1.1787007   0.66519555 
 4887000    4.7461381   -6.9890313   -10.039697    1.2075302    1.2263605   0.61677496 
 4888000    5.3144762   -7.3248853   -10.050773    1.0334511    1.1358802   0.55655654 
 4889000    5.5237181   -6.7559822   -10.024874    1.2335015     1.225492   0.80989832 
 4890000    5.2658985   -6.7687816    -10.07491    1.4753565    1.2877357   0.54303651 
 4891000    5.3916305   -6.9786995   -10.023643   0.96763914    1.4334795   0.64382525 
 4892000    5.1278358   -7.0282152   -10.037491   0.98796107    1.3017409   0.71957384 
 4893000    5.1160839   -7.1064654   -9.9739813   0.93063035    1.3712926   0.56559297 
 4894000    5.5579219   -7.1067127   -9.9123092   0.99511537    1.2382935   0.57218767 
 4895000    5.0120048   -6.8259908   -9.9782233    1.1201655    1.4145301   0.61753695 
 4896000      5.22531   -7.2358221   -10.048159   0.90622237    1.3427266   0.56338826 
 4897000    5.2820254   -7.2076391   -10.095564    1.0601339    1.2177242   0.61006735 
 4898000    4.9252389   -6.9234908    -10.01071    1.0252155    1.3089964   0.75300754 
 4899000    4.8873052   -7.0582787   -9.9534681   0.96346181    1.1444317   0.78729586 
 4900000    4.5341087   -7.3500104   -10.085836   0.88081991    1.1494037   0.70560221 
 4901000    4.4638246   -7.2920988   -10.067287   0.92248333    1.1086869   0.74401784 
 4902000    4.7825029   -7.4073844   -10.021134   0.98621522    1.0104433   0.61709112 
 4903000    4.8436889   -7.4308499   -10.027571   0.97530252    1.0165361   0.60488246 
 4904000     5.261045   -7.3610751   -9.9526974   0.84410855    1.1018892   0.64562466 
 4905000    5.2276771   -7.0569903   -10.115751   0.96024342     1.373292   0.72522503 
 4906000    5.0311892   -7.1748628   -10.036618    1.0036494    1.2201196   0.63798601 
 4907000    5.1395777   -7.2415484   -10.107061    1.0253585    1.1778126   0.66234173 
 4908000    5.0296159   -7.1054492   -10.091042    1.0896781    1.2956593   0.60025523 
 4909000    4.8586831   -7.2120432   -10.093696    1.1751398     1.081115   0.62539809 
 4910000    5.1802834   -7.0631759    -10.06678    1.2204646     1.081818   0.70132156 
 4911000    5.8808458   -7.1419846   -10.074515    1.1723503    1.0664135    0.6937668 
 4912000    5.3453769   -7.3260581   -10.083987   0.89105504    1.2037923   0.66308157 
 4913000    4.8730511   -7.2182188   -10.057077   0.97707795    1.1241329   0.73764762 
 4914000    4.3246797   -6.9381035   -10.050182     1.133848    1.2262466   0.75198396 
 4915000    5.0767349   -7.1642393   -10.050985    1.0189985    1.3238265   0.54392021 
 4916000    4.8082383   -6.9792433   -10.026841    1.2134293     1.171339   0.66282929 
 4917000    4.6043542   -7.1287482   -9.9369293   0.97783877     1.225254   0.60508845 
 4918000    5.2364116   -7.0091524   -10.056162    1.1133397    1.1881767   0.74549322 
 4919000    5.4054418   -7.2201178   -10.024632   0.99047228    1.2417915    0.5722504 
 4920000    4.9173282   -6.9376481   -10.078727    1.1635632    1.2771845   0.70033126 
 4921000    4.7466585   -6.9206654   -10.004161    1.0546783    1.2379314   0.79088627 
 4922000      4.88738   -7.1594094   -9.9718259    1.0391214    1.1290234   0.64427163 
 4923000    4.9547685   -7.0173783   -10.085067    1.0024612    1.3519303     0.713297 
 4924000    5.1995411   -7.2294978   -10.044077   0.99748619    1.2413526   0.57574026 
 4925000    4.7939413   -6.9047723    -10.01873    1.1286243     1.345165   0.64016879 
 4926000    5.0643856   -7.0047836   -10.049664    1.1359987    1.1282903   0.78059168 
 4927000    5.2074359   -6.9545839   -10.029586    1.1657919    1.2300851   0.67912564 
 4928000    5.1847775   -7.0118633   -10.086156    1.1536104    1.1434566   0.77722564 
 4929000    4.9108512   -7.0947506   -10.040732    1.1535327    1.0684732   0.72397545 
 4930000    4.8627779   -6.8979148   -10.067613    1.2165533     1.264332   0.68881255 
 4931000    5.1821494   -6.8858108   -10.109753    1.1956061    1.3066965   0.72163936 
 4932000    5.1567562   -7.0262721   -10.101466    1.0363795    1.3014405   0.73737341 
 4933000    4.8453025   -7.1374129   -10.120322    1.1987293    1.1767544   0.60742546 
 4934000    4.9654159   -7.1680164   -10.065901   0.97174041    1.2109225   0.71522154 
 4935000    5.1122411   -7.2904248   -10.068637    1.0190104    1.1293932   0.62980832 
 4936000    5.0215979   -6.9485187   -10.066865    1.1035306    1.2027142   0.81210166 
 4937000    5.0327768   -7.0191683   -10.064136    1.0986863    1.1997161   0.74656519 
 4938000    4.9464821   -7.2928197   -10.058315   0.92178658    1.2696568   0.57405198 
 4939000    4.9420036   -7.0069068   -10.035794    1.0618806    1.1957232   0.77128356 
 4940000    4.8100826   -6.7402593   -10.057558    1.0375037    1.5457891   0.73400606 
 4941000    4.9880657   -6.8689136   -10.090241    1.0512127    1.4339108   0.73620409 
 4942000    5.3933566   -7.2847183   -10.042413   0.84201899    1.2287348   0.68694058 
 4943000    4.9804061     -7.10027   -10.061429   0.96647919     1.111344   0.88333619 
 4944000    4.9882269    -6.747227   -10.035357    1.1033888    1.3528126   0.83192884 
 4945000    5.0364301   -6.8453985   -10.022656   0.97830363    1.4165173   0.78243686 
 4946000    5.5321561   -7.3105386    -10.08418   0.79010021    1.3565782   0.62696311 
 4947000    5.3564842   -7.2148849   -10.084677   0.91851696    1.2228687   0.72840602 
 4948000    5.0570531   -6.9754845   -10.034834   0.99688127    1.3190323   0.74343556 
 4949000    5.0231949   -7.0578732   -10.104983    1.0394467    1.4070819   0.60058073 
 4950000    5.1776407   -7.1294153   -10.010108    1.0455181    1.0881423   0.74703215 
 4951000    4.6489807   -7.0606887   -10.040765    1.1155302    1.0948386    0.7697073 
 4952000    5.4552145   -7.1540882   -10.048336    1.0277775    1.2217854   0.64468493 
 4953000    4.7406811   -7.0599291   -10.023565    1.0139486     1.218084   0.73160363 
 4954000    4.5426764   -6.9619707   -10.059848    1.0234438    1.3932386   0.68119501 
 4955000    4.9948063   -6.8016655   -10.013654   0.95673289    1.4698108   0.78544521 
 4956000    4.9579114   -6.6673812   -10.025315    1.1349083    1.5054496   0.71757575 
 4957000    4.8134464   -6.7889773   -9.9645808    1.1111711    1.3772594   0.68717299 
 4958000    5.0569794    -7.082374   -9.9911105      1.03469    1.2452947   0.62875185 
 4959000     5.184038   -7.3929423   -10.010685   0.92754341    1.1428034    0.5473958 
 4960000    4.8590126   -7.3222622   -10.022241    1.0158783    1.0961201   0.58798061 
 4961000    5.0799074    -7.173019   -10.038724   0.98849223     1.159751   0.71746216 
 4962000     4.929864   -7.1659146   -10.068808    1.0400048     1.064812   0.79807703 
 4963000    5.3777944   -7.0874506   -10.037177    1.2032677    1.1889922   0.55746678 
 4964000    4.9931196   -7.2602126   -10.119649    1.0424288    1.2018726   0.61513514 
 4965000    5.0228902   -7.3297858   -10.086143   0.92483499    1.0798486   0.75167394 
 4966000    4.9308092   -7.2461862   -10.065756    1.1159755    1.0755626    0.6280316 
 4967000    5.4479295   -7.2731132   -10.078404   0.91769427    1.1737972   0.71379947 
 4968000    4.7909575   -7.0139739   -10.032975    1.0027846    1.3033757    0.7128412 
 4969000    4.8762412   -7.0019211   -10.033911    1.1578778    1.2094346   0.66467803 
 4970000    5.3623143   -7.4111889   -10.085078    1.0983478    1.0640985   0.51144317 
 4971000    5.0270448   -6.9349608   -10.077294    1.1642511     1.241519   0.73656303 
 4972000    5.1567942   -7.1220139   -10.008777    1.1088719    1.1561636   0.62172747 
 4973000    4.9583209   -6.9079619   -10.065603    1.1912098    1.3445939   0.62183794 
 4974000     4.890583   -6.7526745   -10.065625    1.2336636    1.2752379   0.80404947 
 4975000    5.1713263    -7.025402   -10.096746    1.0082314    1.3088496   0.75426291 
 4976000    4.9106389   -6.8140303   -10.042452    1.0950899    1.4196349   0.71369713 
 4977000    5.8380892   -7.2578604   -10.070795   0.89628339    1.2073961   0.70925552 
 4978000    5.1861829   -7.1646994   -10.056711    1.1518657    1.1029421   0.63720348 
 4979000    4.8304693   -6.7605956   -10.020609    1.1008769    1.3269366   0.83219953 
 4980000    5.2750653   -7.0838593   -10.007703    1.0975438    1.2234637   0.60283629 
 4981000    4.8908571   -6.8011624   -10.018072    1.1740633    1.3705405   0.67230537 
 4982000    5.0659599   -7.2013287   -10.098058     1.095251    1.1421856   0.65929267 
 4983000    4.8342356   -6.9043524   -10.017478    1.0356565    1.4093614    0.6681075 
 4984000    5.3002828   -7.0153324    -10.10626    1.1978046    1.1651037   0.72801968 
 4985000    5.4597035   -7.1381886   -10.095952    1.0916845    1.1672435   0.69883554 
 4986000    5.3749256   -7.1331576   -10.084684    1.0802386    1.2535608   0.61772713 
 4987000    5.0881717   -7.1772544   -10.041231    1.0837593    1.1174194   0.66279753 
 4988000    4.6203993   -7.1345398   -10.038472    1.1416654    1.1905948   0.57167186 
 4989000    4.9919666    -7.374357   -10.059404     1.048278   0.99476712   0.64200199 
 4990000    4.8867289   -7.2906761    -10.09672    1.0409216    1.0945122   0.67061015 
 4991000    5.3969384   -7.3787059    -10.03153   0.95308594   0.97001457   0.72972389 
 4992000    5.3246236   -7.2991478   -10.016983    1.0133488    1.1168226   0.58766358 
 4993000    4.7266687    -7.187447   -10.049406    1.0833932    1.2048323   0.57373297 
 4994000    4.6732601   -7.2784082   -10.026869    1.0776244   0.95918816   0.71164845 
 4995000    4.8994455   -7.3808152   -10.044631   0.92930897    1.1132837   0.62122328 
 4996000    4.8933363   -7.4183004   -10.073642    1.0754135   0.95501073   0.62491749 
 4997000    4.8681948   -7.0674866   -10.055422   0.94664034    1.3460763   0.69521845 
 4998000    4.7652776   -7.1890078   -10.017519   0.98195982    1.2559188   0.59063218 
 4999000    5.2696655   -7.2043885    -10.06694    1.1160616    1.1275179   0.61897179 
 5000000     5.114402   -7.0458454   -10.106745    1.1336889    1.2000357   0.72717474 
Loop time of -4931.34 on 4 procs for 5000000 steps with 208 atoms

Performance: -43.802 ns/day, -0.548 hours/ns, -1013.924 timesteps/s
654.3% CPU use with 4 MPI tasks x no OpenMP threads

MPI task timing breakdown:
Section |  min time  |  avg time  |  max time  |%varavg| %total
---------------------------------------------------------------
Pair    |-5173       |-1028.6     | 385.61     |   0.0 | 20.86
Bond    |-5513.7     |-4089.7     | 90.691     |   0.0 | 82.93
Neigh   | 0.41962    | 0.42212    | 0.42642    |   0.4 | -0.01
Comm    | 105.65     | 143.31     | 196.61     | 292.2 | -2.91
Output  | 0.27507    | 0.35244    | 0.58099    |  22.2 | -0.01
Modify  | 29.092     | 35.402     | 41.154     |  73.0 | -0.72
Other   |            | 7.475      |            |       | -0.15

Nlocal:    52 ave 55 max 46 min
Histogram: 1 0 0 0 0 0 0 1 1 1
Nghost:    156 ave 162 max 153 min
Histogram: 1 1 1 0 0 0 0 0 0 1
Neighs:    4952.25 ave 5265 max 4356 min
Histogram: 1 0 0 0 0 0 0 0 2 1

Total # of neighbors = 19809
Ave neighs/atom = 95.2356
Ave special neighs/atom = 8.21154
Neighbor list builds = 2437
Dangerous builds = 0
clear

next t
next a
jump SELF loopstart
# set logfile
log		log.run.$t
log		log.run.10
