
# Box and units  (use LJ units and periodic boundaries)
units		real
# so:
#    mass = grams/mole		# same in gromacs
#    distance = Angstroms	# nm in gromacs
#    time = femtoseconds	# ps in gromacs
#    energy = Kcal/mole		# kcal/mol in gromacs
#    velocity = Angstroms/femtosecond	# ...
#    force = Kcal/mole-Angstrom	# ...
#    temperature = Kelvin	# same in gromacs
#    pressure = atmospheres	# same in gromacs
#    dynamic viscosity = Poise	# no idea
dimension	3
atom_style	molecular
boundary	p p p


# Pair interactions require lists of neighbours to be calculated
neighbor	5.0 nsq
neigh_modify	every 1 delay 10 check yes

# define interactions
pair_style	lj12106/cut  30.0 # same as in md_sample.mdp from the smog-model web-tool
pair_modify	shift yes
bond_style	harmonic
angle_style	harmonic
dihedral_style	charmm
special_bonds	lj 0.0 0.0 0.0 angle yes dihedral yes # 3 exclusions

# READ "start" data file
read_data ../../protein/cystatin/3GAX/7-coarsegrained/data.input
  orthogonal box = (-200 -200 -200) to (200 200 200)
  1 by 2 by 2 MPI processor grid
  reading atoms ...
  208 atoms
  scanning bonds ...
  2 = max bonds/atom
  scanning angles ...
  3 = max angles/atom
  scanning dihedrals ...
  8 = max dihedrals/atom
  reading bonds ...
  208 bonds
  reading angles ...
  306 angles
  reading dihedrals ...
  680 dihedrals
  4 = max # of 1-2 neighbors
  5 = max # of 1-3 neighbors
  13 = max # of 1-4 neighbors
  620 = # of 1-3 neighbors before angle trim
  612 = # of 1-3 neighbors after angle trim
  1129 = # of 1-4 neighbors before dihedral trim
  680 = # of 1-4 neighbors after dihedral trim
  12 = max # of special neighbors

# define coeffs
include ../../protein/cystatin/3GAX/7-coarsegrained/settings.param
pair_coeff 1 1 0.000000e+00 0.000000e+00 4.009755e+04 # CA1-CA1 type=non-native eps=0.002390 sigma=4.000000
pair_coeff 1 2 -7.705603e+02 0.000000e+00 1.242182e+06 # CA1-CA2 type=native eps=0.119500 sigma=3.843570
pair_coeff 1 3 -9.297010e+02 0.000000e+00 1.808251e+06 # CA1-SC2 type=native eps=0.119500 sigma=3.965740
pair_coeff 1 4 -1.512188e+04 0.000000e+00 5.979899e+08 # CA1-CA3 type=native eps=0.095600 sigma=6.551685
pair_coeff 1 5 -8.460246e+04 0.000000e+00 1.247834e+10 # CA1-SC3 type=native eps=0.143400 sigma=8.158944
pair_coeff 1 6 -3.163870e+05 0.000000e+00 1.570618e+11 # CA1-CA4 type=native eps=0.159333 sigma=9.988041
pair_coeff 1 7 -2.450490e+05 0.000000e+00 1.884383e+11 # CA1-SC4 type=native eps=0.079667 sigma=10.743795
pair_coeff 1 8 -1.357535e+06 0.000000e+00 2.570294e+12 # CA1-CA5 type=native eps=0.179250 sigma=12.484667
pair_coeff 1 9 -3.855445e+05 0.000000e+00 6.219438e+11 # CA1-SC5 type=native eps=0.059750 sigma=12.155825
pair_coeff 1 10 -8.404397e+06 0.000000e+00 7.388483e+13 # CA1-CA6 type=native eps=0.239000 sigma=16.125497
pair_coeff 1 11 0.000000e+00 0.000000e+00 1.085818e+04 # CA1-SC6 type=non-native eps=0.002390 sigma=3.587401
pair_coeff 1 12 -1.114102e+07 0.000000e+00 2.596701e+14 # CA1-CA7 type=native eps=0.119500 sigma=18.970896
pair_coeff 1 13 -1.698875e+07 0.000000e+00 6.038028e+14 # CA1-SC7 type=native eps=0.119500 sigma=20.352945
pair_coeff 1 14 -3.651625e+07 0.000000e+00 1.394808e+15 # CA1-CA8 type=native eps=0.239000 sigma=20.598853
pair_coeff 1 15 0.000000e+00 0.000000e+00 6.317440e+04 # CA1-SC8 type=non-native eps=0.002390 sigma=4.154435
pair_coeff 1 16 -6.293775e+06 0.000000e+00 1.243042e+14 # CA1-CA9 type=native eps=0.079667 sigma=18.454435
pair_coeff 1 17 -3.907556e+06 0.000000e+00 2.395762e+13 # CA1-SC9 type=native eps=0.159333 sigma=15.185465
pair_coeff 1 18 -1.774906e+07 0.000000e+00 6.590565e+14 # CA1-CA10 type=native eps=0.119500 sigma=20.502000
pair_coeff 1 19 -2.769455e+07 0.000000e+00 1.604578e+15 # CA1-SC10 type=native eps=0.119500 sigma=22.080017
pair_coeff 1 20 -1.501070e+07 0.000000e+00 2.356915e+14 # CA1-CA11 type=native eps=0.239000 sigma=17.762149
pair_coeff 1 21 -6.366577e+06 0.000000e+00 7.066475e+13 # CA1-CA12 type=native eps=0.143400 sigma=16.764392
pair_coeff 1 22 -3.008667e+06 0.000000e+00 2.367175e+13 # CA1-SC12 type=native eps=0.095600 sigma=15.830004
pair_coeff 1 23 -3.575635e+07 0.000000e+00 1.337360e+15 # CA1-CA13 type=native eps=0.239000 sigma=20.526782
pair_coeff 1 24 0.000000e+00 0.000000e+00 1.293687e+05 # CA1-SC13 type=non-native eps=0.002390 sigma=4.410142
pair_coeff 1 25 -1.366155e+07 0.000000e+00 5.856835e+14 # CA1-CA14 type=native eps=0.079667 sigma=20.999012
pair_coeff 1 26 -5.929064e+07 0.000000e+00 5.515764e+15 # CA1-SC14 type=native eps=0.159333 sigma=23.893233
pair_coeff 1 27 -1.221687e+07 0.000000e+00 2.341820e+14 # CA1-CA15 type=native eps=0.159333 sigma=18.362730
pair_coeff 1 28 -3.671344e+06 0.000000e+00 4.229739e+13 # CA1-SC15 type=native eps=0.079667 sigma=16.868886
pair_coeff 1 29 -1.189860e+07 0.000000e+00 3.702319e+14 # CA1-CA16 type=native eps=0.095600 sigma=19.906794
pair_coeff 1 30 -2.268682e+07 0.000000e+00 8.973010e+14 # CA1-SC16 type=native eps=0.143400 sigma=20.718855
pair_coeff 1 31 -3.958747e+07 0.000000e+00 3.278593e+15 # CA1-CA17 type=native eps=0.119500 sigma=23.434731
pair_coeff 1 32 -6.627091e+07 0.000000e+00 9.187935e+15 # CA1-SC17 type=native eps=0.119500 sigma=25.536076
pair_coeff 1 33 -9.260876e+06 0.000000e+00 6.279778e+14 # CA1-CA18 type=native eps=0.034143 sigma=22.666634
pair_coeff 1 34 -4.179269e+07 0.000000e+00 2.131521e+15 # CA1-SC18 type=native eps=0.204857 sigma=21.615728
pair_coeff 1 35 -3.300542e+07 0.000000e+00 1.519328e+15 # CA1-CA19 type=native eps=0.179250 sigma=21.249532
pair_coeff 1 36 -7.586071e+06 0.000000e+00 2.407886e+14 # CA1-SC19 type=native eps=0.059750 sigma=19.972917
pair_coeff 1 37 -3.792383e+07 0.000000e+00 3.761028e+15 # CA1-CA20 type=native eps=0.095600 sigma=24.149273
pair_coeff 1 38 -6.262869e+07 0.000000e+00 6.838133e+15 # CA1-SC20 type=native eps=0.143400 sigma=24.539499
pair_coeff 1 39 -1.645308e+08 0.000000e+00 2.831631e+16 # CA1-CA21 type=native eps=0.239000 sigma=26.473004
pair_coeff 1 40 -4.325208e+07 0.000000e+00 5.870530e+15 # CA1-CA22 type=native eps=0.079667 sigma=25.445836
pair_coeff 1 41 -7.660248e+07 0.000000e+00 9.207019e+15 # CA1-SC22 type=native eps=0.159333 sigma=24.935478
pair_coeff 1 42 -4.752070e+07 0.000000e+00 7.086454e+15 # CA1-CA23 type=native eps=0.079667 sigma=25.848144
pair_coeff 1 43 -1.132306e+08 0.000000e+00 2.011689e+16 # CA1-SC23 type=native eps=0.159333 sigma=26.613654
pair_coeff 1 44 -1.226562e+08 0.000000e+00 3.934241e+16 # CA1-CA24 type=native eps=0.095600 sigma=29.367496
pair_coeff 1 45 -1.917971e+08 0.000000e+00 6.413202e+16 # CA1-SC24 type=native eps=0.143400 sigma=29.571758
pair_coeff 1 46 -3.726405e+08 0.000000e+00 1.452520e+17 # CA1-CA25 type=native eps=0.239000 sigma=30.337307
pair_coeff 1 47 0.000000e+00 0.000000e+00 6.317440e+04 # CA1-SC25 type=non-native eps=0.002390 sigma=4.154435
pair_coeff 1 48 0.000000e+00 0.000000e+00 4.009755e+04 # CA1-CA26 type=non-native eps=0.002390 sigma=4.000000
pair_coeff 1 49 0.000000e+00 0.000000e+00 3.442571e+03 # CA1-SC26 type=non-native eps=0.002390 sigma=3.259921
pair_coeff 1 50 -2.243899e+08 0.000000e+00 1.053365e+17 # CA1-CA27 type=native eps=0.119500 sigma=31.292067
pair_coeff 1 51 -2.322741e+08 0.000000e+00 1.128687e+17 # CA1-SC27 type=native eps=0.119500 sigma=31.472686
pair_coeff 1 52 0.000000e+00 0.000000e+00 4.009755e+04 # CA1-CA28 type=non-native eps=0.002390 sigma=4.000000
pair_coeff 1 53 0.000000e+00 0.000000e+00 4.009755e+04 # CA1-SC28 type=non-native eps=0.002390 sigma=4.000000
pair_coeff 1 54 -3.784337e+08 0.000000e+00 3.745086e+17 # CA1-CA29 type=native eps=0.095600 sigma=35.433740
pair_coeff 1 55 -5.154005e+08 0.000000e+00 4.631061e+17 # CA1-SC29 type=native eps=0.143400 sigma=34.868046
pair_coeff 1 56 -5.984279e+08 0.000000e+00 9.364955e+17 # CA1-CA30 type=native eps=0.095600 sigma=38.246114
pair_coeff 1 57 -1.473243e+09 0.000000e+00 3.783898e+18 # CA1-SC30 type=native eps=0.143400 sigma=41.538345
pair_coeff 1 58 -5.624528e+08 0.000000e+00 6.618266e+17 # CA1-CA31 type=native eps=0.119500 sigma=36.471030
pair_coeff 1 59 -9.550739e+08 0.000000e+00 1.908297e+18 # CA1-SC31 type=native eps=0.119500 sigma=39.835767
pair_coeff 1 60 -2.872588e+08 0.000000e+00 2.014029e+17 # CA1-CA32 type=native eps=0.102429 sigma=33.455720
pair_coeff 1 61 -2.934573e+08 0.000000e+00 1.576413e+17 # CA1-SC32 type=native eps=0.136571 sigma=32.003134
pair_coeff 1 62 -2.282432e+08 0.000000e+00 9.082108e+16 # CA1-CA33 type=native eps=0.143400 sigma=30.441763
pair_coeff 1 63 -1.446193e+08 0.000000e+00 5.469338e+16 # CA1-SC33 type=native eps=0.095600 sigma=30.184900
pair_coeff 1 64 -8.143585e+07 0.000000e+00 2.081108e+16 # CA1-CA34 type=native eps=0.079667 sigma=28.276013
pair_coeff 1 65 -2.801840e+08 0.000000e+00 1.231743e+17 # CA1-SC34 type=native eps=0.159333 sigma=30.951696
pair_coeff 1 66 -9.613957e+07 0.000000e+00 1.289096e+16 # CA1-CA35 type=native eps=0.179250 sigma=25.394256
pair_coeff 1 67 -2.327960e+07 0.000000e+00 2.267531e+15 # CA1-SC35 type=native eps=0.059750 sigma=24.076939
pair_coeff 1 68 -6.453197e+07 0.000000e+00 1.306812e+16 # CA1-CA36 type=native eps=0.079667 sigma=27.200573
pair_coeff 1 69 -1.717751e+08 0.000000e+00 4.629710e+16 # CA1-SC36 type=native eps=0.159333 sigma=28.527952
pair_coeff 1 70 -4.578683e+07 0.000000e+00 4.385844e+15 # CA1-CA37 type=native eps=0.119500 sigma=24.009905
pair_coeff 1 71 -4.298001e+07 0.000000e+00 3.864604e+15 # CA1-SC37 type=native eps=0.119500 sigma=23.758085
pair_coeff 1 72 -8.704802e+06 0.000000e+00 3.170443e+14 # CA1-CA38 type=native eps=0.059750 sigma=20.436123
pair_coeff 1 73 -2.120090e+07 0.000000e+00 6.268870e+14 # CA1-SC38 type=native eps=0.179250 sigma=19.738350
pair_coeff 1 74 -5.527970e+06 0.000000e+00 1.278596e+14 # CA1-CA39 type=native eps=0.059750 sigma=18.946673
pair_coeff 1 75 -2.003311e+07 0.000000e+00 5.597287e+14 # CA1-SC39 type=native eps=0.179250 sigma=19.552841
pair_coeff 1 76 -1.999236e+06 0.000000e+00 1.254272e+13 # CA1-CA40 type=native eps=0.079667 sigma=15.243789
pair_coeff 1 77 -9.248936e+05 0.000000e+00 1.342199e+12 # CA1-SC40 type=native eps=0.159333 sigma=11.943342
pair_coeff 1 78 -1.336872e+06 0.000000e+00 3.738970e+12 # CA1-CA41 type=native eps=0.119500 sigma=13.323408
pair_coeff 1 79 -2.000252e+06 0.000000e+00 8.370310e+12 # CA1-SC41 type=native eps=0.119500 sigma=14.248893
pair_coeff 1 80 -1.593516e+05 0.000000e+00 6.640414e+10 # CA1-CA42 type=native eps=0.095600 sigma=9.700887
pair_coeff 1 81 -1.208795e+05 0.000000e+00 2.547394e+10 # CA1-SC42 type=native eps=0.143400 sigma=8.658890
pair_coeff 1 82 -3.365084e+04 0.000000e+00 5.922484e+09 # CA1-CA43 type=native eps=0.047800 sigma=8.402780
pair_coeff 1 83 -7.165821e+05 0.000000e+00 6.714041e+11 # CA1-SC43 type=native eps=0.191200 sigma=11.103452
pair_coeff 1 84 -1.296119e+04 0.000000e+00 4.393107e+08 # CA1-CA44 type=native eps=0.095600 sigma=6.385469
pair_coeff 1 85 -1.691210e+03 0.000000e+00 4.986385e+06 # CA1-SC44 type=native eps=0.143400 sigma=4.250464
pair_coeff 1 86 -5.114270e+04 0.000000e+00 1.094383e+10 # CA1-CA45 type=native eps=0.059750 sigma=8.680991
pair_coeff 1 87 -3.020365e+05 0.000000e+00 1.272330e+11 # CA1-SC45 type=native eps=0.179250 sigma=9.718406
pair_coeff 1 88 -2.303983e+05 0.000000e+00 1.110531e+11 # CA1-CA46 type=native eps=0.119500 sigma=9.939096
pair_coeff 1 89 -1.819371e+05 0.000000e+00 6.924922e+10 # CA1-SC46 type=native eps=0.119500 sigma=9.555511
pair_coeff 1 90 -1.596577e+06 0.000000e+00 5.332755e+12 # CA1-CA47 type=native eps=0.119500 sigma=13.723513
pair_coeff 1 91 -2.268119e+06 0.000000e+00 1.076226e+13 # CA1-SC47 type=native eps=0.119500 sigma=14.550502
pair_coeff 1 92 -3.539787e+06 0.000000e+00 1.310679e+13 # CA1-CA48 type=native eps=0.239000 sigma=13.961268
pair_coeff 1 93 -6.410722e+05 0.000000e+00 8.597774e+11 # CA1-CA49 type=native eps=0.119500 sigma=11.787404
pair_coeff 1 94 -8.108391e+05 0.000000e+00 1.375440e+12 # CA1-SC49 type=native eps=0.119500 sigma=12.258090
pair_coeff 1 95 -2.060193e+05 0.000000e+00 1.331923e+11 # CA1-CA50 type=native eps=0.079667 sigma=10.437589
pair_coeff 1 96 -3.279418e+05 0.000000e+00 1.687435e+11 # CA1-SC50 type=native eps=0.159333 sigma=10.047932
pair_coeff 1 97 -3.718764e+05 0.000000e+00 4.339708e+11 # CA1-CA51 type=native eps=0.079667 sigma=11.517246
pair_coeff 1 98 -2.069244e+06 0.000000e+00 6.718258e+12 # CA1-SC51 type=native eps=0.159333 sigma=13.658799
pair_coeff 1 99 -3.271579e+05 0.000000e+00 3.358754e+11 # CA1-CA52 type=native eps=0.079667 sigma=11.273925
pair_coeff 1 100 -1.220047e+05 0.000000e+00 2.335537e+10 # CA1-SC52 type=native eps=0.159333 sigma=8.521316
pair_coeff 1 101 -1.820267e+06 0.000000e+00 8.664680e+12 # CA1-CA53 type=native eps=0.095600 sigma=14.558207
pair_coeff 1 102 -3.874571e+06 0.000000e+00 2.617207e+13 # CA1-SC53 type=native eps=0.143400 sigma=15.432658
pair_coeff 1 103 -2.518649e+06 0.000000e+00 2.654224e+13 # CA1-CA54 type=native eps=0.059750 sigma=16.620087
pair_coeff 1 104 -4.083930e+06 0.000000e+00 2.326149e+13 # CA1-SC54 type=native eps=0.179250 sigma=15.000240
pair_coeff 1 105 -1.599619e+07 0.000000e+00 5.353099e+14 # CA1-CA55 type=native eps=0.119500 sigma=20.149756
pair_coeff 1 106 -1.631150e+07 0.000000e+00 5.566213e+14 # CA1-SC55 type=native eps=0.119500 sigma=20.215415
pair_coeff 1 107 -1.661824e+07 0.000000e+00 1.444382e+15 # CA1-CA56 type=native eps=0.047800 sigma=23.624059
pair_coeff 1 108 -8.068396e+07 0.000000e+00 8.511901e+15 # CA1-SC56 type=native eps=0.191200 sigma=24.399348
pair_coeff 1 109 -6.075288e+07 0.000000e+00 9.651969e+15 # CA1-CA57 type=native eps=0.095600 sigma=26.122406
pair_coeff 1 110 -7.091966e+07 0.000000e+00 8.768477e+15 # CA1-SC57 type=native eps=0.143400 sigma=25.053280
pair_coeff 1 111 -3.380712e+08 0.000000e+00 1.195524e+17 # CA1-CA58 type=native eps=0.239000 sigma=29.849017
pair_coeff 1 112 -2.007225e+08 0.000000e+00 1.264316e+17 # CA1-CA59 type=native eps=0.079667 sigma=32.863584
pair_coeff 1 113 -6.114262e+08 0.000000e+00 5.865722e+17 # CA1-SC59 type=native eps=0.159333 sigma=35.250713
pair_coeff 1 114 -3.594491e+08 0.000000e+00 3.378756e+17 # CA1-CA60 type=native eps=0.095600 sigma=35.131086
pair_coeff 1 115 -4.753048e+08 0.000000e+00 3.938541e+17 # CA1-SC60 type=native eps=0.143400 sigma=34.400560
pair_coeff 1 116 -9.885996e+08 0.000000e+00 1.703851e+18 # CA1-CA61 type=native eps=0.143400 sigma=38.866331
pair_coeff 1 117 -7.524414e+08 0.000000e+00 1.480565e+18 # CA1-SC61 type=native eps=0.095600 sigma=39.734169
pair_coeff 1 118 -8.145312e+08 0.000000e+00 1.387994e+18 # CA1-CA62 type=native eps=0.119500 sigma=38.792845
pair_coeff 1 119 -6.298130e+08 0.000000e+00 8.298419e+17 # CA1-SC62 type=native eps=0.119500 sigma=37.165127
pair_coeff 1 120 0.000000e+00 0.000000e+00 4.009755e+04 # CA1-CA63 type=non-native eps=0.002390 sigma=4.000000
pair_coeff 1 121 0.000000e+00 0.000000e+00 2.286802e+04 # CA1-SC63 type=non-native eps=0.002390 sigma=3.817121
pair_coeff 1 122 0.000000e+00 0.000000e+00 4.009755e+04 # CA1-CA64 type=non-native eps=0.002390 sigma=4.000000
pair_coeff 1 123 0.000000e+00 0.000000e+00 6.317440e+04 # CA1-SC64 type=non-native eps=0.002390 sigma=4.154435
pair_coeff 1 124 0.000000e+00 0.000000e+00 4.009755e+04 # CA1-CA65 type=non-native eps=0.002390 sigma=4.000000
pair_coeff 1 125 0.000000e+00 0.000000e+00 2.286802e+04 # CA1-SC65 type=non-native eps=0.002390 sigma=3.817121
pair_coeff 1 126 0.000000e+00 0.000000e+00 4.009755e+04 # CA1-CA66 type=non-native eps=0.002390 sigma=4.000000
pair_coeff 1 127 0.000000e+00 0.000000e+00 9.272377e+04 # CA1-SC66 type=non-native eps=0.002390 sigma=4.289428
pair_coeff 1 128 0.000000e+00 0.000000e+00 4.009755e+04 # CA1-CA67 type=non-native eps=0.002390 sigma=4.000000
pair_coeff 1 129 0.000000e+00 0.000000e+00 4.009755e+04 # CA1-SC67 type=non-native eps=0.002390 sigma=4.000000
pair_coeff 1 130 0.000000e+00 0.000000e+00 4.009755e+04 # CA1-CA68 type=non-native eps=0.002390 sigma=4.000000
pair_coeff 1 131 0.000000e+00 0.000000e+00 4.009755e+04 # CA1-SC68 type=non-native eps=0.002390 sigma=4.000000
pair_coeff 1 132 0.000000e+00 0.000000e+00 4.009755e+04 # CA1-CA69 type=non-native eps=0.002390 sigma=4.000000
pair_coeff 1 133 0.000000e+00 0.000000e+00 4.009755e+04 # CA1-SC69 type=non-native eps=0.002390 sigma=4.000000
pair_coeff 1 134 0.000000e+00 0.000000e+00 4.009755e+04 # CA1-CA70 type=non-native eps=0.002390 sigma=4.000000
pair_coeff 1 135 0.000000e+00 0.000000e+00 1.085818e+04 # CA1-SC70 type=non-native eps=0.002390 sigma=3.587401
pair_coeff 1 136 0.000000e+00 0.000000e+00 4.009755e+04 # CA1-CA71 type=non-native eps=0.002390 sigma=4.000000
pair_coeff 1 137 0.000000e+00 0.000000e+00 2.286802e+04 # CA1-SC71 type=non-native eps=0.002390 sigma=3.817121
pair_coeff 1 138 0.000000e+00 0.000000e+00 4.009755e+04 # CA1-CA72 type=non-native eps=0.002390 sigma=4.000000
pair_coeff 1 139 -4.710505e+08 0.000000e+00 2.321010e+17 # CA1-SC72 type=native eps=0.239000 sigma=31.545682
pair_coeff 1 140 -2.060873e+08 0.000000e+00 2.665605e+17 # CA1-CA73 type=native eps=0.039833 sigma=37.050644
pair_coeff 1 141 -1.253748e+09 0.000000e+00 1.973075e+18 # CA1-SC73 type=native eps=0.199167 sigma=38.281938
pair_coeff 1 142 -1.562129e+09 0.000000e+00 2.552560e+18 # CA1-CA74 type=native eps=0.239000 sigma=38.522533
pair_coeff 1 143 0.000000e+00 0.000000e+00 4.009755e+04 # CA1-SC74 type=non-native eps=0.002390 sigma=4.000000
pair_coeff 1 144 -1.833840e+09 0.000000e+00 3.517750e+18 # CA1-CA75 type=native eps=0.239000 sigma=39.566010
pair_coeff 1 145 0.000000e+00 0.000000e+00 6.317440e+04 # CA1-SC75 type=non-native eps=0.002390 sigma=4.154435
pair_coeff 1 146 -1.163610e+09 0.000000e+00 1.416306e+18 # CA1-CA76 type=native eps=0.239000 sigma=36.677237
pair_coeff 1 147 0.000000e+00 0.000000e+00 2.286802e+04 # CA1-SC76 type=non-native eps=0.002390 sigma=3.817121
pair_coeff 1 148 0.000000e+00 0.000000e+00 4.009755e+04 # CA1-CA77 type=non-native eps=0.002390 sigma=4.000000
pair_coeff 1 149 0.000000e+00 0.000000e+00 9.272377e+04 # CA1-SC77 type=non-native eps=0.002390 sigma=4.289428
pair_coeff 1 150 0.000000e+00 0.000000e+00 4.009755e+04 # CA1-CA78 type=non-native eps=0.002390 sigma=4.000000
pair_coeff 1 151 0.000000e+00 0.000000e+00 4.009755e+04 # CA1-SC78 type=non-native eps=0.002390 sigma=4.000000
pair_coeff 1 152 0.000000e+00 0.000000e+00 4.009755e+04 # CA1-CA79 type=non-native eps=0.002390 sigma=4.000000
pair_coeff 1 153 0.000000e+00 0.000000e+00 6.317440e+04 # CA1-SC79 type=non-native eps=0.002390 sigma=4.154435
pair_coeff 1 154 -2.970911e+08 0.000000e+00 1.846508e+17 # CA1-CA80 type=native eps=0.119500 sigma=32.790543
pair_coeff 1 155 -4.249209e+08 0.000000e+00 3.777359e+17 # CA1-SC80 type=native eps=0.119500 sigma=34.805806
pair_coeff 1 156 -7.770944e+07 0.000000e+00 2.526677e+16 # CA1-CA81 type=native eps=0.059750 sigma=29.434115
pair_coeff 1 157 -1.885618e+08 0.000000e+00 4.958934e+16 # CA1-SC81 type=native eps=0.179250 sigma=28.411496
pair_coeff 1 158 -8.283084e+07 0.000000e+00 1.435345e+16 # CA1-CA82 type=native eps=0.119500 sigma=26.503244
pair_coeff 1 159 -8.391926e+07 0.000000e+00 1.473314e+16 # CA1-SC82 type=native eps=0.119500 sigma=26.560971
pair_coeff 1 160 -3.502712e+07 0.000000e+00 2.566735e+15 # CA1-CA83 type=native eps=0.119500 sigma=22.961544
pair_coeff 1 161 -1.634791e+07 0.000000e+00 5.591092e+14 # CA1-SC83 type=native eps=0.119500 sigma=20.222929
pair_coeff 1 162 -1.209165e+07 0.000000e+00 4.588116e+14 # CA1-CA84 type=native eps=0.079667 sigma=20.576104
pair_coeff 1 163 -4.060377e+07 0.000000e+00 2.586819e+15 # CA1-SC84 type=native eps=0.159333 sigma=22.432187
pair_coeff 1 164 -7.386779e+06 0.000000e+00 8.561376e+13 # CA1-CA85 type=native eps=0.159333 sigma=16.885726
pair_coeff 1 165 -2.959598e+06 0.000000e+00 2.748709e+13 # CA1-SC85 type=native eps=0.079667 sigma=16.273751
pair_coeff 1 166 -2.332320e+06 0.000000e+00 2.276032e+13 # CA1-CA86 type=native eps=0.059750 sigma=16.408543
pair_coeff 1 167 -1.969146e+07 0.000000e+00 5.408001e+14 # CA1-SC86 type=native eps=0.179250 sigma=19.496866
pair_coeff 1 168 -9.467417e+05 0.000000e+00 3.281506e+12 # CA1-CA87 type=native eps=0.068286 sigma=13.808461
pair_coeff 1 169 -1.146809e+06 0.000000e+00 1.925982e+12 # CA1-SC87 type=native eps=0.170714 sigma=12.237664
pair_coeff 1 170 -1.428089e+06 0.000000e+00 8.533214e+12 # CA1-CA88 type=native eps=0.059750 sigma=15.120445
pair_coeff 1 171 -6.583396e+06 0.000000e+00 6.044784e+13 # CA1-SC88 type=native eps=0.179250 sigma=16.242772
pair_coeff 1 172 -1.818698e+06 0.000000e+00 8.649749e+12 # CA1-CA89 type=native eps=0.095600 sigma=14.556115
pair_coeff 1 173 -3.276517e+06 0.000000e+00 1.871612e+13 # CA1-SC89 type=native eps=0.143400 sigma=15.007403
pair_coeff 1 174 -4.403050e+06 0.000000e+00 4.055827e+13 # CA1-CA90 type=native eps=0.119500 sigma=16.251469
pair_coeff 1 175 -4.384141e+06 0.000000e+00 4.021065e+13 # CA1-SC90 type=native eps=0.119500 sigma=16.239816
pair_coeff 1 176 -8.936376e+06 0.000000e+00 1.392239e+14 # CA1-CA91 type=native eps=0.143400 sigma=17.739051
pair_coeff 1 177 -6.550754e+06 0.000000e+00 1.122186e+14 # CA1-SC91 type=native eps=0.095600 sigma=18.021900
pair_coeff 1 178 0.000000e+00 0.000000e+00 4.009755e+04 # CA1-CA92 type=non-native eps=0.002390 sigma=4.000000
pair_coeff 1 179 0.000000e+00 0.000000e+00 2.286802e+04 # CA1-SC92 type=non-native eps=0.002390 sigma=3.817121
pair_coeff 1 180 0.000000e+00 0.000000e+00 4.009755e+04 # CA1-CA93 type=non-native eps=0.002390 sigma=4.000000
pair_coeff 1 181 0.000000e+00 0.000000e+00 2.880942e+05 # CA1-SC93 type=non-native eps=0.002390 sigma=4.714418
pair_coeff 1 182 0.000000e+00 0.000000e+00 4.009755e+04 # CA1-CA94 type=non-native eps=0.002390 sigma=4.000000
pair_coeff 1 183 0.000000e+00 0.000000e+00 6.317440e+04 # CA1-SC94 type=non-native eps=0.002390 sigma=4.154435
pair_coeff 1 184 0.000000e+00 0.000000e+00 4.009755e+04 # CA1-CA95 type=non-native eps=0.002390 sigma=4.000000
pair_coeff 1 185 0.000000e+00 0.000000e+00 4.009755e+04 # CA1-CA96 type=non-native eps=0.002390 sigma=4.000000
pair_coeff 1 186 0.000000e+00 0.000000e+00 2.286802e+04 # CA1-SC96 type=non-native eps=0.002390 sigma=3.817121
pair_coeff 1 187 0.000000e+00 0.000000e+00 4.009755e+04 # CA1-CA97 type=non-native eps=0.002390 sigma=4.000000
pair_coeff 1 188 0.000000e+00 0.000000e+00 4.009755e+04 # CA1-SC97 type=non-native eps=0.002390 sigma=4.000000
pair_coeff 1 189 0.000000e+00 0.000000e+00 4.009755e+04 # CA1-CA98 type=non-native eps=0.002390 sigma=4.000000
pair_coeff 1 190 0.000000e+00 0.000000e+00 2.286802e+04 # CA1-SC98 type=non-native eps=0.002390 sigma=3.817121
pair_coeff 1 191 0.000000e+00 0.000000e+00 4.009755e+04 # CA1-CA99 type=non-native eps=0.002390 sigma=4.000000
pair_coeff 1 192 0.000000e+00 0.000000e+00 4.009755e+04 # CA1-SC99 type=non-native eps=0.002390 sigma=4.000000
pair_coeff 1 193 0.000000e+00 0.000000e+00 4.009755e+04 # CA1-CA100 type=non-native eps=0.002390 sigma=4.000000
pair_coeff 1 194 0.000000e+00 0.000000e+00 1.085818e+04 # CA1-SC100 type=non-native eps=0.002390 sigma=3.587401
pair_coeff 1 195 0.000000e+00 0.000000e+00 4.009755e+04 # CA1-CA101 type=non-native eps=0.002390 sigma=4.000000
pair_coeff 1 196 0.000000e+00 0.000000e+00 6.317440e+04 # CA1-SC101 type=non-native eps=0.002390 sigma=4.154435
pair_coeff 1 197 0.000000e+00 0.000000e+00 4.009755e+04 # CA1-CA102 type=non-native eps=0.002390 sigma=4.000000
pair_coeff 1 198 0.000000e+00 0.000000e+00 1.085818e+04 # CA1-SC102 type=non-native eps=0.002390 sigma=3.587401
pair_coeff 1 199 0.000000e+00 0.000000e+00 4.009755e+04 # CA1-CA103 type=non-native eps=0.002390 sigma=4.000000
pair_coeff 1 200 0.000000e+00 0.000000e+00 2.286802e+04 # CA1-SC103 type=non-native eps=0.002390 sigma=3.817121
pair_coeff 1 201 0.000000e+00 0.000000e+00 4.009755e+04 # CA1-CA104 type=non-native eps=0.002390 sigma=4.000000
pair_coeff 1 202 0.000000e+00 0.000000e+00 1.085818e+04 # CA1-SC104 type=non-native eps=0.002390 sigma=3.587401
pair_coeff 1 203 0.000000e+00 0.000000e+00 4.009755e+04 # CA1-CA105 type=non-native eps=0.002390 sigma=4.000000
pair_coeff 1 204 0.000000e+00 0.000000e+00 6.317440e+04 # CA1-SC105 type=non-native eps=0.002390 sigma=4.154435
pair_coeff 1 205 0.000000e+00 0.000000e+00 4.009755e+04 # CA1-CA106 type=non-native eps=0.002390 sigma=4.000000
pair_coeff 1 206 0.000000e+00 0.000000e+00 4.009755e+04 # CA1-SC106 type=non-native eps=0.002390 sigma=4.000000
pair_coeff 1 207 0.000000e+00 0.000000e+00 4.009755e+04 # CA1-CA107 type=non-native eps=0.002390 sigma=4.000000
pair_coeff 1 208 0.000000e+00 0.000000e+00 1.085818e+04 # CA1-SC107 type=non-native eps=0.002390 sigma=3.587401
pair_coeff 2 2 0.000000e+00 0.000000e+00 4.009755e+04 # CA2-CA2 type=non-native eps=0.002390 sigma=4.000000
pair_coeff 2 3 0.000000e+00 0.000000e+00 2.286802e+04 # CA2-SC2 type=non-native eps=0.002390 sigma=3.817121
pair_coeff 2 4 0.000000e+00 0.000000e+00 4.009755e+04 # CA2-CA3 type=non-native eps=0.002390 sigma=4.000000
pair_coeff 2 5 0.000000e+00 0.000000e+00 4.009755e+04 # CA2-SC3 type=non-native eps=0.002390 sigma=4.000000
pair_coeff 2 6 0.000000e+00 0.000000e+00 4.009755e+04 # CA2-CA4 type=non-native eps=0.002390 sigma=4.000000
pair_coeff 2 7 0.000000e+00 0.000000e+00 4.009755e+04 # CA2-SC4 type=non-native eps=0.002390 sigma=4.000000
pair_coeff 2 8 0.000000e+00 0.000000e+00 4.009755e+04 # CA2-CA5 type=non-native eps=0.002390 sigma=4.000000
pair_coeff 2 9 0.000000e+00 0.000000e+00 3.442571e+03 # CA2-SC5 type=non-native eps=0.002390 sigma=3.259921
pair_coeff 2 10 0.000000e+00 0.000000e+00 4.009755e+04 # CA2-CA6 type=non-native eps=0.002390 sigma=4.000000
pair_coeff 2 11 0.000000e+00 0.000000e+00 1.085818e+04 # CA2-SC6 type=non-native eps=0.002390 sigma=3.587401
pair_coeff 2 12 0.000000e+00 0.000000e+00 4.009755e+04 # CA2-CA7 type=non-native eps=0.002390 sigma=4.000000
pair_coeff 2 13 0.000000e+00 0.000000e+00 2.286802e+04 # CA2-SC7 type=non-native eps=0.002390 sigma=3.817121
pair_coeff 2 14 0.000000e+00 0.000000e+00 4.009755e+04 # CA2-CA8 type=non-native eps=0.002390 sigma=4.000000
pair_coeff 2 15 0.000000e+00 0.000000e+00 6.317440e+04 # CA2-SC8 type=non-native eps=0.002390 sigma=4.154435
pair_coeff 2 16 0.000000e+00 0.000000e+00 4.009755e+04 # CA2-CA9 type=non-native eps=0.002390 sigma=4.000000
pair_coeff 2 17 0.000000e+00 0.000000e+00 6.317440e+04 # CA2-SC9 type=non-native eps=0.002390 sigma=4.154435
pair_coeff 2 18 0.000000e+00 0.000000e+00 4.009755e+04 # CA2-CA10 type=non-native eps=0.002390 sigma=4.000000
pair_coeff 2 19 0.000000e+00 0.000000e+00 6.317440e+04 # CA2-SC10 type=non-native eps=0.002390 sigma=4.154435
pair_coeff 2 20 0.000000e+00 0.000000e+00 4.009755e+04 # CA2-CA11 type=non-native eps=0.002390 sigma=4.000000
pair_coeff 2 21 0.000000e+00 0.000000e+00 4.009755e+04 # CA2-CA12 type=non-native eps=0.002390 sigma=4.000000
pair_coeff 2 22 0.000000e+00 0.000000e+00 2.286802e+04 # CA2-SC12 type=non-native eps=0.002390 sigma=3.817121
pair_coeff 2 23 0.000000e+00 0.000000e+00 4.009755e+04 # CA2-CA13 type=non-native eps=0.002390 sigma=4.000000
pair_coeff 2 24 0.000000e+00 0.000000e+00 1.293687e+05 # CA2-SC13 type=non-native eps=0.002390 sigma=4.410142
pair_coeff 2 25 0.000000e+00 0.000000e+00 4.009755e+04 # CA2-CA14 type=non-native eps=0.002390 sigma=4.000000
pair_coeff 2 26 0.000000e+00 0.000000e+00 1.293687e+05 # CA2-SC14 type=non-native eps=0.002390 sigma=4.410142
pair_coeff 2 27 0.000000e+00 0.000000e+00 4.009755e+04 # CA2-CA15 type=non-native eps=0.002390 sigma=4.000000
pair_coeff 2 28 0.000000e+00 0.000000e+00 3.442571e+03 # CA2-SC15 type=non-native eps=0.002390 sigma=3.259921
pair_coeff 2 29 0.000000e+00 0.000000e+00 4.009755e+04 # CA2-CA16 type=non-native eps=0.002390 sigma=4.000000
pair_coeff 2 30 0.000000e+00 0.000000e+00 4.009755e+04 # CA2-SC16 type=non-native eps=0.002390 sigma=4.000000
pair_coeff 2 31 0.000000e+00 0.000000e+00 4.009755e+04 # CA2-CA17 type=non-native eps=0.002390 sigma=4.000000
pair_coeff 2 32 0.000000e+00 0.000000e+00 4.009755e+04 # CA2-SC17 type=non-native eps=0.002390 sigma=4.000000
pair_coeff 2 33 0.000000e+00 0.000000e+00 4.009755e+04 # CA2-CA18 type=non-native eps=0.002390 sigma=4.000000
pair_coeff 2 34 0.000000e+00 0.000000e+00 1.293687e+05 # CA2-SC18 type=non-native eps=0.002390 sigma=4.410142
pair_coeff 2 35 0.000000e+00 0.000000e+00 4.009755e+04 # CA2-CA19 type=non-native eps=0.002390 sigma=4.000000
pair_coeff 2 36 0.000000e+00 0.000000e+00 3.442571e+03 # CA2-SC19 type=non-native eps=0.002390 sigma=3.259921
pair_coeff 2 37 0.000000e+00 0.000000e+00 4.009755e+04 # CA2-CA20 type=non-native eps=0.002390 sigma=4.000000
pair_coeff 2 38 0.000000e+00 0.000000e+00 2.286802e+04 # CA2-SC20 type=non-native eps=0.002390 sigma=3.817121
pair_coeff 2 39 0.000000e+00 0.000000e+00 4.009755e+04 # CA2-CA21 type=non-native eps=0.002390 sigma=4.000000
pair_coeff 2 40 0.000000e+00 0.000000e+00 4.009755e+04 # CA2-CA22 type=non-native eps=0.002390 sigma=4.000000
pair_coeff 2 41 0.000000e+00 0.000000e+00 6.317440e+04 # CA2-SC22 type=non-native eps=0.002390 sigma=4.154435
pair_coeff 2 42 0.000000e+00 0.000000e+00 4.009755e+04 # CA2-CA23 type=non-native eps=0.002390 sigma=4.000000
pair_coeff 2 43 0.000000e+00 0.000000e+00 1.737309e+05 # CA2-SC23 type=non-native eps=0.002390 sigma=4.519842
pair_coeff 2 44 0.000000e+00 0.000000e+00 4.009755e+04 # CA2-CA24 type=non-native eps=0.002390 sigma=4.000000
pair_coeff 2 45 0.000000e+00 0.000000e+00 4.009755e+04 # CA2-SC24 type=non-native eps=0.002390 sigma=4.000000
pair_coeff 2 46 0.000000e+00 0.000000e+00 4.009755e+04 # CA2-CA25 type=non-native eps=0.002390 sigma=4.000000
pair_coeff 2 47 0.000000e+00 0.000000e+00 6.317440e+04 # CA2-SC25 type=non-native eps=0.002390 sigma=4.154435
pair_coeff 2 48 0.000000e+00 0.000000e+00 4.009755e+04 # CA2-CA26 type=non-native eps=0.002390 sigma=4.000000
pair_coeff 2 49 0.000000e+00 0.000000e+00 3.442571e+03 # CA2-SC26 type=non-native eps=0.002390 sigma=3.259921
pair_coeff 2 50 0.000000e+00 0.000000e+00 4.009755e+04 # CA2-CA27 type=non-native eps=0.002390 sigma=4.000000
pair_coeff 2 51 0.000000e+00 0.000000e+00 1.085818e+04 # CA2-SC27 type=non-native eps=0.002390 sigma=3.587401
pair_coeff 2 52 0.000000e+00 0.000000e+00 4.009755e+04 # CA2-CA28 type=non-native eps=0.002390 sigma=4.000000
pair_coeff 2 53 0.000000e+00 0.000000e+00 4.009755e+04 # CA2-SC28 type=non-native eps=0.002390 sigma=4.000000
pair_coeff 2 54 0.000000e+00 0.000000e+00 4.009755e+04 # CA2-CA29 type=non-native eps=0.002390 sigma=4.000000
pair_coeff 2 55 0.000000e+00 0.000000e+00 4.009755e+04 # CA2-SC29 type=non-native eps=0.002390 sigma=4.000000
pair_coeff 2 56 0.000000e+00 0.000000e+00 4.009755e+04 # CA2-CA30 type=non-native eps=0.002390 sigma=4.000000
pair_coeff 2 57 0.000000e+00 0.000000e+00 4.009755e+04 # CA2-SC30 type=non-native eps=0.002390 sigma=4.000000
pair_coeff 2 58 0.000000e+00 0.000000e+00 4.009755e+04 # CA2-CA31 type=non-native eps=0.002390 sigma=4.000000
pair_coeff 2 59 0.000000e+00 0.000000e+00 1.737309e+05 # CA2-SC31 type=non-native eps=0.002390 sigma=4.519842
pair_coeff 2 60 0.000000e+00 0.000000e+00 4.009755e+04 # CA2-CA32 type=non-native eps=0.002390 sigma=4.000000
pair_coeff 2 61 0.000000e+00 0.000000e+00 9.272377e+04 # CA2-SC32 type=non-native eps=0.002390 sigma=4.289428
pair_coeff 2 62 0.000000e+00 0.000000e+00 4.009755e+04 # CA2-CA33 type=non-native eps=0.002390 sigma=4.000000
pair_coeff 2 63 0.000000e+00 0.000000e+00 1.085818e+04 # CA2-SC33 type=non-native eps=0.002390 sigma=3.587401
pair_coeff 2 64 0.000000e+00 0.000000e+00 4.009755e+04 # CA2-CA34 type=non-native eps=0.002390 sigma=4.000000
pair_coeff 2 65 0.000000e+00 0.000000e+00 1.293687e+05 # CA2-SC34 type=non-native eps=0.002390 sigma=4.410142
pair_coeff 2 66 0.000000e+00 0.000000e+00 4.009755e+04 # CA2-CA35 type=non-native eps=0.002390 sigma=4.000000
pair_coeff 2 67 0.000000e+00 0.000000e+00 3.442571e+03 # CA2-SC35 type=non-native eps=0.002390 sigma=3.259921
pair_coeff 2 68 0.000000e+00 0.000000e+00 4.009755e+04 # CA2-CA36 type=non-native eps=0.002390 sigma=4.000000
pair_coeff 2 69 0.000000e+00 0.000000e+00 4.009755e+04 # CA2-SC36 type=non-native eps=0.002390 sigma=4.000000
pair_coeff 2 70 0.000000e+00 0.000000e+00 4.009755e+04 # CA2-CA37 type=non-native eps=0.002390 sigma=4.000000
pair_coeff 2 71 0.000000e+00 0.000000e+00 6.317440e+04 # CA2-SC37 type=non-native eps=0.002390 sigma=4.154435
pair_coeff 2 72 0.000000e+00 0.000000e+00 4.009755e+04 # CA2-CA38 type=non-native eps=0.002390 sigma=4.000000
pair_coeff 2 73 0.000000e+00 0.000000e+00 2.286802e+04 # CA2-SC38 type=non-native eps=0.002390 sigma=3.817121
pair_coeff 2 74 0.000000e+00 0.000000e+00 4.009755e+04 # CA2-CA39 type=non-native eps=0.002390 sigma=4.000000
pair_coeff 2 75 0.000000e+00 0.000000e+00 2.286802e+04 # CA2-SC39 type=non-native eps=0.002390 sigma=3.817121
pair_coeff 2 76 0.000000e+00 0.000000e+00 4.009755e+04 # CA2-CA40 type=non-native eps=0.002390 sigma=4.000000
pair_coeff 2 77 0.000000e+00 0.000000e+00 1.293687e+05 # CA2-SC40 type=non-native eps=0.002390 sigma=4.410142
pair_coeff 2 78 0.000000e+00 0.000000e+00 4.009755e+04 # CA2-CA41 type=non-native eps=0.002390 sigma=4.000000
pair_coeff 2 79 0.000000e+00 0.000000e+00 3.442571e+03 # CA2-SC41 type=non-native eps=0.002390 sigma=3.259921
pair_coeff 2 80 0.000000e+00 0.000000e+00 4.009755e+04 # CA2-CA42 type=non-native eps=0.002390 sigma=4.000000
pair_coeff 2 81 0.000000e+00 0.000000e+00 1.293687e+05 # CA2-SC42 type=non-native eps=0.002390 sigma=4.410142
pair_coeff 2 82 0.000000e+00 0.000000e+00 4.009755e+04 # CA2-CA43 type=non-native eps=0.002390 sigma=4.000000
pair_coeff 2 83 0.000000e+00 0.000000e+00 6.317440e+04 # CA2-SC43 type=non-native eps=0.002390 sigma=4.154435
pair_coeff 2 84 0.000000e+00 0.000000e+00 4.009755e+04 # CA2-CA44 type=non-native eps=0.002390 sigma=4.000000
pair_coeff 2 85 0.000000e+00 0.000000e+00 6.317440e+04 # CA2-SC44 type=non-native eps=0.002390 sigma=4.154435
pair_coeff 2 86 0.000000e+00 0.000000e+00 4.009755e+04 # CA2-CA45 type=non-native eps=0.002390 sigma=4.000000
pair_coeff 2 87 0.000000e+00 0.000000e+00 4.009755e+04 # CA2-SC45 type=non-native eps=0.002390 sigma=4.000000
pair_coeff 2 88 0.000000e+00 0.000000e+00 4.009755e+04 # CA2-CA46 type=non-native eps=0.002390 sigma=4.000000
pair_coeff 2 89 0.000000e+00 0.000000e+00 2.286802e+04 # CA2-SC46 type=non-native eps=0.002390 sigma=3.817121
pair_coeff 2 90 0.000000e+00 0.000000e+00 4.009755e+04 # CA2-CA47 type=non-native eps=0.002390 sigma=4.000000
pair_coeff 2 91 0.000000e+00 0.000000e+00 3.442571e+03 # CA2-SC47 type=non-native eps=0.002390 sigma=3.259921
pair_coeff 2 92 0.000000e+00 0.000000e+00 4.009755e+04 # CA2-CA48 type=non-native eps=0.002390 sigma=4.000000
pair_coeff 2 93 0.000000e+00 0.000000e+00 4.009755e+04 # CA2-CA49 type=non-native eps=0.002390 sigma=4.000000
pair_coeff 2 94 0.000000e+00 0.000000e+00 2.286802e+04 # CA2-SC49 type=non-native eps=0.002390 sigma=3.817121
pair_coeff 2 95 0.000000e+00 0.000000e+00 4.009755e+04 # CA2-CA50 type=non-native eps=0.002390 sigma=4.000000
pair_coeff 2 96 0.000000e+00 0.000000e+00 4.009755e+04 # CA2-SC50 type=non-native eps=0.002390 sigma=4.000000
pair_coeff 2 97 0.000000e+00 0.000000e+00 4.009755e+04 # CA2-CA51 type=non-native eps=0.002390 sigma=4.000000
pair_coeff 2 98 0.000000e+00 0.000000e+00 1.737309e+05 # CA2-SC51 type=non-native eps=0.002390 sigma=4.519842
pair_coeff 2 99 0.000000e+00 0.000000e+00 4.009755e+04 # CA2-CA52 type=non-native eps=0.002390 sigma=4.000000
pair_coeff 2 100 0.000000e+00 0.000000e+00 1.293687e+05 # CA2-SC52 type=non-native eps=0.002390 sigma=4.410142
pair_coeff 2 101 0.000000e+00 0.000000e+00 4.009755e+04 # CA2-CA53 type=non-native eps=0.002390 sigma=4.000000
pair_coeff 2 102 0.000000e+00 0.000000e+00 4.009755e+04 # CA2-SC53 type=non-native eps=0.002390 sigma=4.000000
pair_coeff 2 103 0.000000e+00 0.000000e+00 4.009755e+04 # CA2-CA54 type=non-native eps=0.002390 sigma=4.000000
pair_coeff 2 104 0.000000e+00 0.000000e+00 4.009755e+04 # CA2-SC54 type=non-native eps=0.002390 sigma=4.000000
pair_coeff 2 105 0.000000e+00 0.000000e+00 4.009755e+04 # CA2-CA55 type=non-native eps=0.002390 sigma=4.000000
pair_coeff 2 106 0.000000e+00 0.000000e+00 2.286802e+04 # CA2-SC55 type=non-native eps=0.002390 sigma=3.817121
pair_coeff 2 107 0.000000e+00 0.000000e+00 4.009755e+04 # CA2-CA56 type=non-native eps=0.002390 sigma=4.000000
pair_coeff 2 108 0.000000e+00 0.000000e+00 6.317440e+04 # CA2-SC56 type=non-native eps=0.002390 sigma=4.154435
pair_coeff 2 109 0.000000e+00 0.000000e+00 4.009755e+04 # CA2-CA57 type=non-native eps=0.002390 sigma=4.000000
pair_coeff 2 110 0.000000e+00 0.000000e+00 4.009755e+04 # CA2-SC57 type=non-native eps=0.002390 sigma=4.000000
pair_coeff 2 111 0.000000e+00 0.000000e+00 4.009755e+04 # CA2-CA58 type=non-native eps=0.002390 sigma=4.000000
pair_coeff 2 112 0.000000e+00 0.000000e+00 4.009755e+04 # CA2-CA59 type=non-native eps=0.002390 sigma=4.000000
pair_coeff 2 113 0.000000e+00 0.000000e+00 1.293687e+05 # CA2-SC59 type=non-native eps=0.002390 sigma=4.410142
pair_coeff 2 114 0.000000e+00 0.000000e+00 4.009755e+04 # CA2-CA60 type=non-native eps=0.002390 sigma=4.000000
pair_coeff 2 115 0.000000e+00 0.000000e+00 2.286802e+04 # CA2-SC60 type=non-native eps=0.002390 sigma=3.817121
pair_coeff 2 116 0.000000e+00 0.000000e+00 4.009755e+04 # CA2-CA61 type=non-native eps=0.002390 sigma=4.000000
pair_coeff 2 117 0.000000e+00 0.000000e+00 2.286802e+04 # CA2-SC61 type=non-native eps=0.002390 sigma=3.817121
pair_coeff 2 118 0.000000e+00 0.000000e+00 4.009755e+04 # CA2-CA62 type=non-native eps=0.002390 sigma=4.000000
pair_coeff 2 119 0.000000e+00 0.000000e+00 1.085818e+04 # CA2-SC62 type=non-native eps=0.002390 sigma=3.587401
pair_coeff 2 120 0.000000e+00 0.000000e+00 4.009755e+04 # CA2-CA63 type=non-native eps=0.002390 sigma=4.000000
pair_coeff 2 121 0.000000e+00 0.000000e+00 2.286802e+04 # CA2-SC63 type=non-native eps=0.002390 sigma=3.817121
pair_coeff 2 122 0.000000e+00 0.000000e+00 4.009755e+04 # CA2-CA64 type=non-native eps=0.002390 sigma=4.000000
pair_coeff 2 123 0.000000e+00 0.000000e+00 6.317440e+04 # CA2-SC64 type=non-native eps=0.002390 sigma=4.154435
pair_coeff 2 124 0.000000e+00 0.000000e+00 4.009755e+04 # CA2-CA65 type=non-native eps=0.002390 sigma=4.000000
pair_coeff 2 125 0.000000e+00 0.000000e+00 2.286802e+04 # CA2-SC65 type=non-native eps=0.002390 sigma=3.817121
pair_coeff 2 126 0.000000e+00 0.000000e+00 4.009755e+04 # CA2-CA66 type=non-native eps=0.002390 sigma=4.000000
pair_coeff 2 127 0.000000e+00 0.000000e+00 9.272377e+04 # CA2-SC66 type=non-native eps=0.002390 sigma=4.289428
pair_coeff 2 128 0.000000e+00 0.000000e+00 4.009755e+04 # CA2-CA67 type=non-native eps=0.002390 sigma=4.000000
pair_coeff 2 129 0.000000e+00 0.000000e+00 4.009755e+04 # CA2-SC67 type=non-native eps=0.002390 sigma=4.000000
pair_coeff 2 130 0.000000e+00 0.000000e+00 4.009755e+04 # CA2-CA68 type=non-native eps=0.002390 sigma=4.000000
pair_coeff 2 131 0.000000e+00 0.000000e+00 4.009755e+04 # CA2-SC68 type=non-native eps=0.002390 sigma=4.000000
pair_coeff 2 132 0.000000e+00 0.000000e+00 4.009755e+04 # CA2-CA69 type=non-native eps=0.002390 sigma=4.000000
pair_coeff 2 133 0.000000e+00 0.000000e+00 4.009755e+04 # CA2-SC69 type=non-native eps=0.002390 sigma=4.000000
pair_coeff 2 134 0.000000e+00 0.000000e+00 4.009755e+04 # CA2-CA70 type=non-native eps=0.002390 sigma=4.000000
pair_coeff 2 135 0.000000e+00 0.000000e+00 1.085818e+04 # CA2-SC70 type=non-native eps=0.002390 sigma=3.587401
pair_coeff 2 136 0.000000e+00 0.000000e+00 4.009755e+04 # CA2-CA71 type=non-native eps=0.002390 sigma=4.000000
pair_coeff 2 137 0.000000e+00 0.000000e+00 2.286802e+04 # CA2-SC71 type=non-native eps=0.002390 sigma=3.817121
pair_coeff 2 138 0.000000e+00 0.000000e+00 4.009755e+04 # CA2-CA72 type=non-native eps=0.002390 sigma=4.000000
pair_coeff 2 139 0.000000e+00 0.000000e+00 1.293687e+05 # CA2-SC72 type=non-native eps=0.002390 sigma=4.410142
pair_coeff 2 140 0.000000e+00 0.000000e+00 4.009755e+04 # CA2-CA73 type=non-native eps=0.002390 sigma=4.000000
pair_coeff 2 141 0.000000e+00 0.000000e+00 9.272377e+04 # CA2-SC73 type=non-native eps=0.002390 sigma=4.289428
pair_coeff 2 142 0.000000e+00 0.000000e+00 4.009755e+04 # CA2-CA74 type=non-native eps=0.002390 sigma=4.000000
pair_coeff 2 143 0.000000e+00 0.000000e+00 4.009755e+04 # CA2-SC74 type=non-native eps=0.002390 sigma=4.000000
pair_coeff 2 144 0.000000e+00 0.000000e+00 4.009755e+04 # CA2-CA75 type=non-native eps=0.002390 sigma=4.000000
pair_coeff 2 145 0.000000e+00 0.000000e+00 6.317440e+04 # CA2-SC75 type=non-native eps=0.002390 sigma=4.154435
pair_coeff 2 146 0.000000e+00 0.000000e+00 4.009755e+04 # CA2-CA76 type=non-native eps=0.002390 sigma=4.000000
pair_coeff 2 147 0.000000e+00 0.000000e+00 2.286802e+04 # CA2-SC76 type=non-native eps=0.002390 sigma=3.817121
pair_coeff 2 148 0.000000e+00 0.000000e+00 4.009755e+04 # CA2-CA77 type=non-native eps=0.002390 sigma=4.000000
pair_coeff 2 149 0.000000e+00 0.000000e+00 9.272377e+04 # CA2-SC77 type=non-native eps=0.002390 sigma=4.289428
pair_coeff 2 150 0.000000e+00 0.000000e+00 4.009755e+04 # CA2-CA78 type=non-native eps=0.002390 sigma=4.000000
pair_coeff 2 151 0.000000e+00 0.000000e+00 4.009755e+04 # CA2-SC78 type=non-native eps=0.002390 sigma=4.000000
pair_coeff 2 152 0.000000e+00 0.000000e+00 4.009755e+04 # CA2-CA79 type=non-native eps=0.002390 sigma=4.000000
pair_coeff 2 153 0.000000e+00 0.000000e+00 6.317440e+04 # CA2-SC79 type=non-native eps=0.002390 sigma=4.154435
pair_coeff 2 154 0.000000e+00 0.000000e+00 4.009755e+04 # CA2-CA80 type=non-native eps=0.002390 sigma=4.000000
pair_coeff 2 155 0.000000e+00 0.000000e+00 1.293687e+05 # CA2-SC80 type=non-native eps=0.002390 sigma=4.410142
pair_coeff 2 156 0.000000e+00 0.000000e+00 4.009755e+04 # CA2-CA81 type=non-native eps=0.002390 sigma=4.000000
pair_coeff 2 157 0.000000e+00 0.000000e+00 6.317440e+04 # CA2-SC81 type=non-native eps=0.002390 sigma=4.154435
pair_coeff 2 158 0.000000e+00 0.000000e+00 4.009755e+04 # CA2-CA82 type=non-native eps=0.002390 sigma=4.000000
pair_coeff 2 159 0.000000e+00 0.000000e+00 3.442571e+03 # CA2-SC82 type=non-native eps=0.002390 sigma=3.259921
pair_coeff 2 160 0.000000e+00 0.000000e+00 4.009755e+04 # CA2-CA83 type=non-native eps=0.002390 sigma=4.000000
pair_coeff 2 161 0.000000e+00 0.000000e+00 1.293687e+05 # CA2-SC83 type=non-native eps=0.002390 sigma=4.410142
pair_coeff 2 162 0.000000e+00 0.000000e+00 4.009755e+04 # CA2-CA84 type=non-native eps=0.002390 sigma=4.000000
pair_coeff 2 163 0.000000e+00 0.000000e+00 1.085818e+04 # CA2-SC84 type=non-native eps=0.002390 sigma=3.587401
pair_coeff 2 164 0.000000e+00 0.000000e+00 4.009755e+04 # CA2-CA85 type=non-native eps=0.002390 sigma=4.000000
pair_coeff 2 165 0.000000e+00 0.000000e+00 1.085818e+04 # CA2-SC85 type=non-native eps=0.002390 sigma=3.587401
pair_coeff 2 166 0.000000e+00 0.000000e+00 4.009755e+04 # CA2-CA86 type=non-native eps=0.002390 sigma=4.000000
pair_coeff 2 167 0.000000e+00 0.000000e+00 1.293687e+05 # CA2-SC86 type=non-native eps=0.002390 sigma=4.410142
pair_coeff 2 168 0.000000e+00 0.000000e+00 4.009755e+04 # CA2-CA87 type=non-native eps=0.002390 sigma=4.000000
pair_coeff 2 169 0.000000e+00 0.000000e+00 6.317440e+04 # CA2-SC87 type=non-native eps=0.002390 sigma=4.154435
pair_coeff 2 170 0.000000e+00 0.000000e+00 4.009755e+04 # CA2-CA88 type=non-native eps=0.002390 sigma=4.000000
pair_coeff 2 171 0.000000e+00 0.000000e+00 4.009755e+04 # CA2-SC88 type=non-native eps=0.002390 sigma=4.000000
pair_coeff 2 172 0.000000e+00 0.000000e+00 4.009755e+04 # CA2-CA89 type=non-native eps=0.002390 sigma=4.000000
pair_coeff 2 173 0.000000e+00 0.000000e+00 1.737309e+05 # CA2-SC89 type=non-native eps=0.002390 sigma=4.519842
pair_coeff 2 174 0.000000e+00 0.000000e+00 4.009755e+04 # CA2-CA90 type=non-native eps=0.002390 sigma=4.000000
pair_coeff 2 175 0.000000e+00 0.000000e+00 3.442571e+03 # CA2-SC90 type=non-native eps=0.002390 sigma=3.259921
pair_coeff 2 176 0.000000e+00 0.000000e+00 4.009755e+04 # CA2-CA91 type=non-native eps=0.002390 sigma=4.000000
pair_coeff 2 177 0.000000e+00 0.000000e+00 2.286802e+04 # CA2-SC91 type=non-native eps=0.002390 sigma=3.817121
pair_coeff 2 178 0.000000e+00 0.000000e+00 4.009755e+04 # CA2-CA92 type=non-native eps=0.002390 sigma=4.000000
pair_coeff 2 179 0.000000e+00 0.000000e+00 2.286802e+04 # CA2-SC92 type=non-native eps=0.002390 sigma=3.817121
pair_coeff 2 180 0.000000e+00 0.000000e+00 4.009755e+04 # CA2-CA93 type=non-native eps=0.002390 sigma=4.000000
pair_coeff 2 181 0.000000e+00 0.000000e+00 2.880942e+05 # CA2-SC93 type=non-native eps=0.002390 sigma=4.714418
pair_coeff 2 182 0.000000e+00 0.000000e+00 4.009755e+04 # CA2-CA94 type=non-native eps=0.002390 sigma=4.000000
pair_coeff 2 183 0.000000e+00 0.000000e+00 6.317440e+04 # CA2-SC94 type=non-native eps=0.002390 sigma=4.154435
pair_coeff 2 184 0.000000e+00 0.000000e+00 4.009755e+04 # CA2-CA95 type=non-native eps=0.002390 sigma=4.000000
pair_coeff 2 185 0.000000e+00 0.000000e+00 4.009755e+04 # CA2-CA96 type=non-native eps=0.002390 sigma=4.000000
pair_coeff 2 186 0.000000e+00 0.000000e+00 2.286802e+04 # CA2-SC96 type=non-native eps=0.002390 sigma=3.817121
pair_coeff 2 187 0.000000e+00 0.000000e+00 4.009755e+04 # CA2-CA97 type=non-native eps=0.002390 sigma=4.000000
pair_coeff 2 188 0.000000e+00 0.000000e+00 4.009755e+04 # CA2-SC97 type=non-native eps=0.002390 sigma=4.000000
pair_coeff 2 189 0.000000e+00 0.000000e+00 4.009755e+04 # CA2-CA98 type=non-native eps=0.002390 sigma=4.000000
pair_coeff 2 190 0.000000e+00 0.000000e+00 2.286802e+04 # CA2-SC98 type=non-native eps=0.002390 sigma=3.817121
pair_coeff 2 191 0.000000e+00 0.000000e+00 4.009755e+04 # CA2-CA99 type=non-native eps=0.002390 sigma=4.000000
pair_coeff 2 192 0.000000e+00 0.000000e+00 4.009755e+04 # CA2-SC99 type=non-native eps=0.002390 sigma=4.000000
pair_coeff 2 193 0.000000e+00 0.000000e+00 4.009755e+04 # CA2-CA100 type=non-native eps=0.002390 sigma=4.000000
pair_coeff 2 194 0.000000e+00 0.000000e+00 1.085818e+04 # CA2-SC100 type=non-native eps=0.002390 sigma=3.587401
pair_coeff 2 195 0.000000e+00 0.000000e+00 4.009755e+04 # CA2-CA101 type=non-native eps=0.002390 sigma=4.000000
pair_coeff 2 196 0.000000e+00 0.000000e+00 6.317440e+04 # CA2-SC101 type=non-native eps=0.002390 sigma=4.154435
pair_coeff 2 197 0.000000e+00 0.000000e+00 4.009755e+04 # CA2-CA102 type=non-native eps=0.002390 sigma=4.000000
pair_coeff 2 198 0.000000e+00 0.000000e+00 1.085818e+04 # CA2-SC102 type=non-native eps=0.002390 sigma=3.587401
pair_coeff 2 199 0.000000e+00 0.000000e+00 4.009755e+04 # CA2-CA103 type=non-native eps=0.002390 sigma=4.000000
pair_coeff 2 200 0.000000e+00 0.000000e+00 2.286802e+04 # CA2-SC103 type=non-native eps=0.002390 sigma=3.817121
pair_coeff 2 201 0.000000e+00 0.000000e+00 4.009755e+04 # CA2-CA104 type=non-native eps=0.002390 sigma=4.000000
pair_coeff 2 202 0.000000e+00 0.000000e+00 1.085818e+04 # CA2-SC104 type=non-native eps=0.002390 sigma=3.587401
pair_coeff 2 203 0.000000e+00 0.000000e+00 4.009755e+04 # CA2-CA105 type=non-native eps=0.002390 sigma=4.000000
pair_coeff 2 204 0.000000e+00 0.000000e+00 6.317440e+04 # CA2-SC105 type=non-native eps=0.002390 sigma=4.154435
pair_coeff 2 205 0.000000e+00 0.000000e+00 4.009755e+04 # CA2-CA106 type=non-native eps=0.002390 sigma=4.000000
pair_coeff 2 206 0.000000e+00 0.000000e+00 4.009755e+04 # CA2-SC106 type=non-native eps=0.002390 sigma=4.000000
pair_coeff 2 207 0.000000e+00 0.000000e+00 4.009755e+04 # CA2-CA107 type=non-native eps=0.002390 sigma=4.000000
pair_coeff 2 208 0.000000e+00 0.000000e+00 1.085818e+04 # CA2-SC107 type=non-native eps=0.002390 sigma=3.587401
pair_coeff 3 3 0.000000e+00 0.000000e+00 1.268711e+04 # SC2-SC2 type=non-native eps=0.002390 sigma=3.634241
pair_coeff 3 4 0.000000e+00 0.000000e+00 2.286802e+04 # SC2-CA3 type=non-native eps=0.002390 sigma=3.817121
pair_coeff 3 5 0.000000e+00 0.000000e+00 2.286802e+04 # SC2-SC3 type=non-native eps=0.002390 sigma=3.817121
pair_coeff 3 6 0.000000e+00 0.000000e+00 2.286802e+04 # SC2-CA4 type=non-native eps=0.002390 sigma=3.817121
pair_coeff 3 7 0.000000e+00 0.000000e+00 2.286802e+04 # SC2-SC4 type=non-native eps=0.002390 sigma=3.817121
pair_coeff 3 8 0.000000e+00 0.000000e+00 2.286802e+04 # SC2-CA5 type=non-native eps=0.002390 sigma=3.817121
pair_coeff 3 9 0.000000e+00 0.000000e+00 1.721862e+03 # SC2-SC5 type=non-native eps=0.002390 sigma=3.077042
pair_coeff 3 10 0.000000e+00 0.000000e+00 2.286802e+04 # SC2-CA6 type=non-native eps=0.002390 sigma=3.817121
pair_coeff 3 11 0.000000e+00 0.000000e+00 5.795236e+03 # SC2-SC6 type=non-native eps=0.002390 sigma=3.404522
pair_coeff 3 12 0.000000e+00 0.000000e+00 2.286802e+04 # SC2-CA7 type=non-native eps=0.002390 sigma=3.817121
pair_coeff 3 13 0.000000e+00 0.000000e+00 1.268711e+04 # SC2-SC7 type=non-native eps=0.002390 sigma=3.634241
pair_coeff 3 14 0.000000e+00 0.000000e+00 2.286802e+04 # SC2-CA8 type=non-native eps=0.002390 sigma=3.817121
pair_coeff 3 15 0.000000e+00 0.000000e+00 3.680656e+04 # SC2-SC8 type=non-native eps=0.002390 sigma=3.971555
pair_coeff 3 16 0.000000e+00 0.000000e+00 2.286802e+04 # SC2-CA9 type=non-native eps=0.002390 sigma=3.817121
pair_coeff 3 17 0.000000e+00 0.000000e+00 3.680656e+04 # SC2-SC9 type=non-native eps=0.002390 sigma=3.971555
pair_coeff 3 18 0.000000e+00 0.000000e+00 2.286802e+04 # SC2-CA10 type=non-native eps=0.002390 sigma=3.817121
pair_coeff 3 19 0.000000e+00 0.000000e+00 3.680656e+04 # SC2-SC10 type=non-native eps=0.002390 sigma=3.971555
pair_coeff 3 20 0.000000e+00 0.000000e+00 2.286802e+04 # SC2-CA11 type=non-native eps=0.002390 sigma=3.817121
pair_coeff 3 21 0.000000e+00 0.000000e+00 2.286802e+04 # SC2-CA12 type=non-native eps=0.002390 sigma=3.817121
pair_coeff 3 22 0.000000e+00 0.000000e+00 1.268711e+04 # SC2-SC12 type=non-native eps=0.002390 sigma=3.634241
pair_coeff 3 23 0.000000e+00 0.000000e+00 2.286802e+04 # SC2-CA13 type=non-native eps=0.002390 sigma=3.817121
pair_coeff 3 24 0.000000e+00 0.000000e+00 7.782318e+04 # SC2-SC13 type=non-native eps=0.002390 sigma=4.227263
pair_coeff 3 25 0.000000e+00 0.000000e+00 2.286802e+04 # SC2-CA14 type=non-native eps=0.002390 sigma=3.817121
pair_coeff 3 26 0.000000e+00 0.000000e+00 7.782318e+04 # SC2-SC14 type=non-native eps=0.002390 sigma=4.227263
pair_coeff 3 27 0.000000e+00 0.000000e+00 2.286802e+04 # SC2-CA15 type=non-native eps=0.002390 sigma=3.817121
pair_coeff 3 28 0.000000e+00 0.000000e+00 1.721862e+03 # SC2-SC15 type=non-native eps=0.002390 sigma=3.077042
pair_coeff 3 29 0.000000e+00 0.000000e+00 2.286802e+04 # SC2-CA16 type=non-native eps=0.002390 sigma=3.817121
pair_coeff 3 30 0.000000e+00 0.000000e+00 2.286802e+04 # SC2-SC16 type=non-native eps=0.002390 sigma=3.817121
pair_coeff 3 31 0.000000e+00 0.000000e+00 2.286802e+04 # SC2-CA17 type=non-native eps=0.002390 sigma=3.817121
pair_coeff 3 32 0.000000e+00 0.000000e+00 2.286802e+04 # SC2-SC17 type=non-native eps=0.002390 sigma=3.817121
pair_coeff 3 33 0.000000e+00 0.000000e+00 2.286802e+04 # SC2-CA18 type=non-native eps=0.002390 sigma=3.817121
pair_coeff 3 34 0.000000e+00 0.000000e+00 7.782318e+04 # SC2-SC18 type=non-native eps=0.002390 sigma=4.227263
pair_coeff 3 35 0.000000e+00 0.000000e+00 2.286802e+04 # SC2-CA19 type=non-native eps=0.002390 sigma=3.817121
pair_coeff 3 36 0.000000e+00 0.000000e+00 1.721862e+03 # SC2-SC19 type=non-native eps=0.002390 sigma=3.077042
pair_coeff 3 37 0.000000e+00 0.000000e+00 2.286802e+04 # SC2-CA20 type=non-native eps=0.002390 sigma=3.817121
pair_coeff 3 38 0.000000e+00 0.000000e+00 1.268711e+04 # SC2-SC20 type=non-native eps=0.002390 sigma=3.634241
pair_coeff 3 39 0.000000e+00 0.000000e+00 2.286802e+04 # SC2-CA21 type=non-native eps=0.002390 sigma=3.817121
pair_coeff 3 40 0.000000e+00 0.000000e+00 2.286802e+04 # SC2-CA22 type=non-native eps=0.002390 sigma=3.817121
pair_coeff 3 41 0.000000e+00 0.000000e+00 3.680656e+04 # SC2-SC22 type=non-native eps=0.002390 sigma=3.971555
pair_coeff 3 42 0.000000e+00 0.000000e+00 2.286802e+04 # SC2-CA23 type=non-native eps=0.002390 sigma=3.817121
pair_coeff 3 43 0.000000e+00 0.000000e+00 1.058342e+05 # SC2-SC23 type=non-native eps=0.002390 sigma=4.336963
pair_coeff 3 44 0.000000e+00 0.000000e+00 2.286802e+04 # SC2-CA24 type=non-native eps=0.002390 sigma=3.817121
pair_coeff 3 45 0.000000e+00 0.000000e+00 2.286802e+04 # SC2-SC24 type=non-native eps=0.002390 sigma=3.817121
pair_coeff 3 46 0.000000e+00 0.000000e+00 2.286802e+04 # SC2-CA25 type=non-native eps=0.002390 sigma=3.817121
pair_coeff 3 47 0.000000e+00 0.000000e+00 3.680656e+04 # SC2-SC25 type=non-native eps=0.002390 sigma=3.971555
pair_coeff 3 48 0.000000e+00 0.000000e+00 2.286802e+04 # SC2-CA26 type=non-native eps=0.002390 sigma=3.817121
pair_coeff 3 49 0.000000e+00 0.000000e+00 1.721862e+03 # SC2-SC26 type=non-native eps=0.002390 sigma=3.077042
pair_coeff 3 50 0.000000e+00 0.000000e+00 2.286802e+04 # SC2-CA27 type=non-native eps=0.002390 sigma=3.817121
pair_coeff 3 51 0.000000e+00 0.000000e+00 5.795236e+03 # SC2-SC27 type=non-native eps=0.002390 sigma=3.404522
pair_coeff 3 52 0.000000e+00 0.000000e+00 2.286802e+04 # SC2-CA28 type=non-native eps=0.002390 sigma=3.817121
pair_coeff 3 53 0.000000e+00 0.000000e+00 2.286802e+04 # SC2-SC28 type=non-native eps=0.002390 sigma=3.817121
pair_coeff 3 54 0.000000e+00 0.000000e+00 2.286802e+04 # SC2-CA29 type=non-native eps=0.002390 sigma=3.817121
pair_coeff 3 55 0.000000e+00 0.000000e+00 2.286802e+04 # SC2-SC29 type=non-native eps=0.002390 sigma=3.817121
pair_coeff 3 56 0.000000e+00 0.000000e+00 2.286802e+04 # SC2-CA30 type=non-native eps=0.002390 sigma=3.817121
pair_coeff 3 57 0.000000e+00 0.000000e+00 2.286802e+04 # SC2-SC30 type=non-native eps=0.002390 sigma=3.817121
pair_coeff 3 58 0.000000e+00 0.000000e+00 2.286802e+04 # SC2-CA31 type=non-native eps=0.002390 sigma=3.817121
pair_coeff 3 59 0.000000e+00 0.000000e+00 1.058342e+05 # SC2-SC31 type=non-native eps=0.002390 sigma=4.336963
pair_coeff 3 60 0.000000e+00 0.000000e+00 2.286802e+04 # SC2-CA32 type=non-native eps=0.002390 sigma=3.817121
pair_coeff 3 61 0.000000e+00 0.000000e+00 5.496954e+04 # SC2-SC32 type=non-native eps=0.002390 sigma=4.106549
pair_coeff 3 62 0.000000e+00 0.000000e+00 2.286802e+04 # SC2-CA33 type=non-native eps=0.002390 sigma=3.817121
pair_coeff 3 63 0.000000e+00 0.000000e+00 5.795236e+03 # SC2-SC33 type=non-native eps=0.002390 sigma=3.404522
pair_coeff 3 64 0.000000e+00 0.000000e+00 2.286802e+04 # SC2-CA34 type=non-native eps=0.002390 sigma=3.817121
pair_coeff 3 65 0.000000e+00 0.000000e+00 7.782318e+04 # SC2-SC34 type=non-native eps=0.002390 sigma=4.227263
pair_coeff 3 66 0.000000e+00 0.000000e+00 2.286802e+04 # SC2-CA35 type=non-native eps=0.002390 sigma=3.817121
pair_coeff 3 67 0.000000e+00 0.000000e+00 1.721862e+03 # SC2-SC35 type=non-native eps=0.002390 sigma=3.077042
pair_coeff 3 68 0.000000e+00 0.000000e+00 2.286802e+04 # SC2-CA36 type=non-native eps=0.002390 sigma=3.817121
pair_coeff 3 69 0.000000e+00 0.000000e+00 2.286802e+04 # SC2-SC36 type=non-native eps=0.002390 sigma=3.817121
pair_coeff 3 70 0.000000e+00 0.000000e+00 2.286802e+04 # SC2-CA37 type=non-native eps=0.002390 sigma=3.817121
pair_coeff 3 71 0.000000e+00 0.000000e+00 3.680656e+04 # SC2-SC37 type=non-native eps=0.002390 sigma=3.971555
pair_coeff 3 72 0.000000e+00 0.000000e+00 2.286802e+04 # SC2-CA38 type=non-native eps=0.002390 sigma=3.817121
pair_coeff 3 73 0.000000e+00 0.000000e+00 1.268711e+04 # SC2-SC38 type=non-native eps=0.002390 sigma=3.634241
pair_coeff 3 74 0.000000e+00 0.000000e+00 2.286802e+04 # SC2-CA39 type=non-native eps=0.002390 sigma=3.817121
pair_coeff 3 75 0.000000e+00 0.000000e+00 1.268711e+04 # SC2-SC39 type=non-native eps=0.002390 sigma=3.634241
pair_coeff 3 76 0.000000e+00 0.000000e+00 2.286802e+04 # SC2-CA40 type=non-native eps=0.002390 sigma=3.817121
pair_coeff 3 77 0.000000e+00 0.000000e+00 7.782318e+04 # SC2-SC40 type=non-native eps=0.002390 sigma=4.227263
pair_coeff 3 78 0.000000e+00 0.000000e+00 2.286802e+04 # SC2-CA41 type=non-native eps=0.002390 sigma=3.817121
pair_coeff 3 79 0.000000e+00 0.000000e+00 1.721862e+03 # SC2-SC41 type=non-native eps=0.002390 sigma=3.077042
pair_coeff 3 80 0.000000e+00 0.000000e+00 2.286802e+04 # SC2-CA42 type=non-native eps=0.002390 sigma=3.817121
pair_coeff 3 81 0.000000e+00 0.000000e+00 7.782318e+04 # SC2-SC42 type=non-native eps=0.002390 sigma=4.227263
pair_coeff 3 82 0.000000e+00 0.000000e+00 2.286802e+04 # SC2-CA43 type=non-native eps=0.002390 sigma=3.817121
pair_coeff 3 83 0.000000e+00 0.000000e+00 3.680656e+04 # SC2-SC43 type=non-native eps=0.002390 sigma=3.971555
pair_coeff 3 84 0.000000e+00 0.000000e+00 2.286802e+04 # SC2-CA44 type=non-native eps=0.002390 sigma=3.817121
pair_coeff 3 85 0.000000e+00 0.000000e+00 3.680656e+04 # SC2-SC44 type=non-native eps=0.002390 sigma=3.971555
pair_coeff 3 86 0.000000e+00 0.000000e+00 2.286802e+04 # SC2-CA45 type=non-native eps=0.002390 sigma=3.817121
pair_coeff 3 87 0.000000e+00 0.000000e+00 2.286802e+04 # SC2-SC45 type=non-native eps=0.002390 sigma=3.817121
pair_coeff 3 88 0.000000e+00 0.000000e+00 2.286802e+04 # SC2-CA46 type=non-native eps=0.002390 sigma=3.817121
pair_coeff 3 89 0.000000e+00 0.000000e+00 1.268711e+04 # SC2-SC46 type=non-native eps=0.002390 sigma=3.634241
pair_coeff 3 90 0.000000e+00 0.000000e+00 2.286802e+04 # SC2-CA47 type=non-native eps=0.002390 sigma=3.817121
pair_coeff 3 91 0.000000e+00 0.000000e+00 1.721862e+03 # SC2-SC47 type=non-native eps=0.002390 sigma=3.077042
pair_coeff 3 92 0.000000e+00 0.000000e+00 2.286802e+04 # SC2-CA48 type=non-native eps=0.002390 sigma=3.817121
pair_coeff 3 93 0.000000e+00 0.000000e+00 2.286802e+04 # SC2-CA49 type=non-native eps=0.002390 sigma=3.817121
pair_coeff 3 94 0.000000e+00 0.000000e+00 1.268711e+04 # SC2-SC49 type=non-native eps=0.002390 sigma=3.634241
pair_coeff 3 95 0.000000e+00 0.000000e+00 2.286802e+04 # SC2-CA50 type=non-native eps=0.002390 sigma=3.817121
pair_coeff 3 96 0.000000e+00 0.000000e+00 2.286802e+04 # SC2-SC50 type=non-native eps=0.002390 sigma=3.817121
pair_coeff 3 97 0.000000e+00 0.000000e+00 2.286802e+04 # SC2-CA51 type=non-native eps=0.002390 sigma=3.817121
pair_coeff 3 98 0.000000e+00 0.000000e+00 1.058342e+05 # SC2-SC51 type=non-native eps=0.002390 sigma=4.336963
pair_coeff 3 99 0.000000e+00 0.000000e+00 2.286802e+04 # SC2-CA52 type=non-native eps=0.002390 sigma=3.817121
pair_coeff 3 100 0.000000e+00 0.000000e+00 7.782318e+04 # SC2-SC52 type=non-native eps=0.002390 sigma=4.227263
pair_coeff 3 101 0.000000e+00 0.000000e+00 2.286802e+04 # SC2-CA53 type=non-native eps=0.002390 sigma=3.817121
pair_coeff 3 102 0.000000e+00 0.000000e+00 2.286802e+04 # SC2-SC53 type=non-native eps=0.002390 sigma=3.817121
pair_coeff 3 103 0.000000e+00 0.000000e+00 2.286802e+04 # SC2-CA54 type=non-native eps=0.002390 sigma=3.817121
pair_coeff 3 104 0.000000e+00 0.000000e+00 2.286802e+04 # SC2-SC54 type=non-native eps=0.002390 sigma=3.817121
pair_coeff 3 105 0.000000e+00 0.000000e+00 2.286802e+04 # SC2-CA55 type=non-native eps=0.002390 sigma=3.817121
pair_coeff 3 106 0.000000e+00 0.000000e+00 1.268711e+04 # SC2-SC55 type=non-native eps=0.002390 sigma=3.634241
pair_coeff 3 107 0.000000e+00 0.000000e+00 2.286802e+04 # SC2-CA56 type=non-native eps=0.002390 sigma=3.817121
pair_coeff 3 108 0.000000e+00 0.000000e+00 3.680656e+04 # SC2-SC56 type=non-native eps=0.002390 sigma=3.971555
pair_coeff 3 109 0.000000e+00 0.000000e+00 2.286802e+04 # SC2-CA57 type=non-native eps=0.002390 sigma=3.817121
pair_coeff 3 110 0.000000e+00 0.000000e+00 2.286802e+04 # SC2-SC57 type=non-native eps=0.002390 sigma=3.817121
pair_coeff 3 111 0.000000e+00 0.000000e+00 2.286802e+04 # SC2-CA58 type=non-native eps=0.002390 sigma=3.817121
pair_coeff 3 112 0.000000e+00 0.000000e+00 2.286802e+04 # SC2-CA59 type=non-native eps=0.002390 sigma=3.817121
pair_coeff 3 113 0.000000e+00 0.000000e+00 7.782318e+04 # SC2-SC59 type=non-native eps=0.002390 sigma=4.227263
pair_coeff 3 114 0.000000e+00 0.000000e+00 2.286802e+04 # SC2-CA60 type=non-native eps=0.002390 sigma=3.817121
pair_coeff 3 115 0.000000e+00 0.000000e+00 1.268711e+04 # SC2-SC60 type=non-native eps=0.002390 sigma=3.634241
pair_coeff 3 116 0.000000e+00 0.000000e+00 2.286802e+04 # SC2-CA61 type=non-native eps=0.002390 sigma=3.817121
pair_coeff 3 117 0.000000e+00 0.000000e+00 1.268711e+04 # SC2-SC61 type=non-native eps=0.002390 sigma=3.634241
pair_coeff 3 118 0.000000e+00 0.000000e+00 2.286802e+04 # SC2-CA62 type=non-native eps=0.002390 sigma=3.817121
pair_coeff 3 119 0.000000e+00 0.000000e+00 5.795236e+03 # SC2-SC62 type=non-native eps=0.002390 sigma=3.404522
pair_coeff 3 120 0.000000e+00 0.000000e+00 2.286802e+04 # SC2-CA63 type=non-native eps=0.002390 sigma=3.817121
pair_coeff 3 121 0.000000e+00 0.000000e+00 1.268711e+04 # SC2-SC63 type=non-native eps=0.002390 sigma=3.634241
pair_coeff 3 122 0.000000e+00 0.000000e+00 2.286802e+04 # SC2-CA64 type=non-native eps=0.002390 sigma=3.817121
pair_coeff 3 123 0.000000e+00 0.000000e+00 3.680656e+04 # SC2-SC64 type=non-native eps=0.002390 sigma=3.971555
pair_coeff 3 124 0.000000e+00 0.000000e+00 2.286802e+04 # SC2-CA65 type=non-native eps=0.002390 sigma=3.817121
pair_coeff 3 125 0.000000e+00 0.000000e+00 1.268711e+04 # SC2-SC65 type=non-native eps=0.002390 sigma=3.634241
pair_coeff 3 126 0.000000e+00 0.000000e+00 2.286802e+04 # SC2-CA66 type=non-native eps=0.002390 sigma=3.817121
pair_coeff 3 127 0.000000e+00 0.000000e+00 5.496954e+04 # SC2-SC66 type=non-native eps=0.002390 sigma=4.106549
pair_coeff 3 128 0.000000e+00 0.000000e+00 2.286802e+04 # SC2-CA67 type=non-native eps=0.002390 sigma=3.817121
pair_coeff 3 129 0.000000e+00 0.000000e+00 2.286802e+04 # SC2-SC67 type=non-native eps=0.002390 sigma=3.817121
pair_coeff 3 130 0.000000e+00 0.000000e+00 2.286802e+04 # SC2-CA68 type=non-native eps=0.002390 sigma=3.817121
pair_coeff 3 131 0.000000e+00 0.000000e+00 2.286802e+04 # SC2-SC68 type=non-native eps=0.002390 sigma=3.817121
pair_coeff 3 132 0.000000e+00 0.000000e+00 2.286802e+04 # SC2-CA69 type=non-native eps=0.002390 sigma=3.817121
pair_coeff 3 133 0.000000e+00 0.000000e+00 2.286802e+04 # SC2-SC69 type=non-native eps=0.002390 sigma=3.817121
pair_coeff 3 134 0.000000e+00 0.000000e+00 2.286802e+04 # SC2-CA70 type=non-native eps=0.002390 sigma=3.817121
pair_coeff 3 135 0.000000e+00 0.000000e+00 5.795236e+03 # SC2-SC70 type=non-native eps=0.002390 sigma=3.404522
pair_coeff 3 136 0.000000e+00 0.000000e+00 2.286802e+04 # SC2-CA71 type=non-native eps=0.002390 sigma=3.817121
pair_coeff 3 137 0.000000e+00 0.000000e+00 1.268711e+04 # SC2-SC71 type=non-native eps=0.002390 sigma=3.634241
pair_coeff 3 138 0.000000e+00 0.000000e+00 2.286802e+04 # SC2-CA72 type=non-native eps=0.002390 sigma=3.817121
pair_coeff 3 139 0.000000e+00 0.000000e+00 7.782318e+04 # SC2-SC72 type=non-native eps=0.002390 sigma=4.227263
pair_coeff 3 140 0.000000e+00 0.000000e+00 2.286802e+04 # SC2-CA73 type=non-native eps=0.002390 sigma=3.817121
pair_coeff 3 141 0.000000e+00 0.000000e+00 5.496954e+04 # SC2-SC73 type=non-native eps=0.002390 sigma=4.106549
pair_coeff 3 142 0.000000e+00 0.000000e+00 2.286802e+04 # SC2-CA74 type=non-native eps=0.002390 sigma=3.817121
pair_coeff 3 143 0.000000e+00 0.000000e+00 2.286802e+04 # SC2-SC74 type=non-native eps=0.002390 sigma=3.817121
pair_coeff 3 144 0.000000e+00 0.000000e+00 2.286802e+04 # SC2-CA75 type=non-native eps=0.002390 sigma=3.817121
pair_coeff 3 145 0.000000e+00 0.000000e+00 3.680656e+04 # SC2-SC75 type=non-native eps=0.002390 sigma=3.971555
pair_coeff 3 146 0.000000e+00 0.000000e+00 2.286802e+04 # SC2-CA76 type=non-native eps=0.002390 sigma=3.817121
pair_coeff 3 147 0.000000e+00 0.000000e+00 1.268711e+04 # SC2-SC76 type=non-native eps=0.002390 sigma=3.634241
pair_coeff 3 148 0.000000e+00 0.000000e+00 2.286802e+04 # SC2-CA77 type=non-native eps=0.002390 sigma=3.817121
pair_coeff 3 149 0.000000e+00 0.000000e+00 5.496954e+04 # SC2-SC77 type=non-native eps=0.002390 sigma=4.106549
pair_coeff 3 150 0.000000e+00 0.000000e+00 2.286802e+04 # SC2-CA78 type=non-native eps=0.002390 sigma=3.817121
pair_coeff 3 151 0.000000e+00 0.000000e+00 2.286802e+04 # SC2-SC78 type=non-native eps=0.002390 sigma=3.817121
pair_coeff 3 152 0.000000e+00 0.000000e+00 2.286802e+04 # SC2-CA79 type=non-native eps=0.002390 sigma=3.817121
pair_coeff 3 153 0.000000e+00 0.000000e+00 3.680656e+04 # SC2-SC79 type=non-native eps=0.002390 sigma=3.971555
pair_coeff 3 154 0.000000e+00 0.000000e+00 2.286802e+04 # SC2-CA80 type=non-native eps=0.002390 sigma=3.817121
pair_coeff 3 155 0.000000e+00 0.000000e+00 7.782318e+04 # SC2-SC80 type=non-native eps=0.002390 sigma=4.227263
pair_coeff 3 156 0.000000e+00 0.000000e+00 2.286802e+04 # SC2-CA81 type=non-native eps=0.002390 sigma=3.817121
pair_coeff 3 157 0.000000e+00 0.000000e+00 3.680656e+04 # SC2-SC81 type=non-native eps=0.002390 sigma=3.971555
pair_coeff 3 158 0.000000e+00 0.000000e+00 2.286802e+04 # SC2-CA82 type=non-native eps=0.002390 sigma=3.817121
pair_coeff 3 159 0.000000e+00 0.000000e+00 1.721862e+03 # SC2-SC82 type=non-native eps=0.002390 sigma=3.077042
pair_coeff 3 160 0.000000e+00 0.000000e+00 2.286802e+04 # SC2-CA83 type=non-native eps=0.002390 sigma=3.817121
pair_coeff 3 161 0.000000e+00 0.000000e+00 7.782318e+04 # SC2-SC83 type=non-native eps=0.002390 sigma=4.227263
pair_coeff 3 162 0.000000e+00 0.000000e+00 2.286802e+04 # SC2-CA84 type=non-native eps=0.002390 sigma=3.817121
pair_coeff 3 163 0.000000e+00 0.000000e+00 5.795236e+03 # SC2-SC84 type=non-native eps=0.002390 sigma=3.404522
pair_coeff 3 164 0.000000e+00 0.000000e+00 2.286802e+04 # SC2-CA85 type=non-native eps=0.002390 sigma=3.817121
pair_coeff 3 165 0.000000e+00 0.000000e+00 5.795236e+03 # SC2-SC85 type=non-native eps=0.002390 sigma=3.404522
pair_coeff 3 166 0.000000e+00 0.000000e+00 2.286802e+04 # SC2-CA86 type=non-native eps=0.002390 sigma=3.817121
pair_coeff 3 167 0.000000e+00 0.000000e+00 7.782318e+04 # SC2-SC86 type=non-native eps=0.002390 sigma=4.227263
pair_coeff 3 168 0.000000e+00 0.000000e+00 2.286802e+04 # SC2-CA87 type=non-native eps=0.002390 sigma=3.817121
pair_coeff 3 169 0.000000e+00 0.000000e+00 3.680656e+04 # SC2-SC87 type=non-native eps=0.002390 sigma=3.971555
pair_coeff 3 170 0.000000e+00 0.000000e+00 2.286802e+04 # SC2-CA88 type=non-native eps=0.002390 sigma=3.817121
pair_coeff 3 171 0.000000e+00 0.000000e+00 2.286802e+04 # SC2-SC88 type=non-native eps=0.002390 sigma=3.817121
pair_coeff 3 172 0.000000e+00 0.000000e+00 2.286802e+04 # SC2-CA89 type=non-native eps=0.002390 sigma=3.817121
pair_coeff 3 173 0.000000e+00 0.000000e+00 1.058342e+05 # SC2-SC89 type=non-native eps=0.002390 sigma=4.336963
pair_coeff 3 174 0.000000e+00 0.000000e+00 2.286802e+04 # SC2-CA90 type=non-native eps=0.002390 sigma=3.817121
pair_coeff 3 175 0.000000e+00 0.000000e+00 1.721862e+03 # SC2-SC90 type=non-native eps=0.002390 sigma=3.077042
pair_coeff 3 176 0.000000e+00 0.000000e+00 2.286802e+04 # SC2-CA91 type=non-native eps=0.002390 sigma=3.817121
pair_coeff 3 177 0.000000e+00 0.000000e+00 1.268711e+04 # SC2-SC91 type=non-native eps=0.002390 sigma=3.634241
pair_coeff 3 178 0.000000e+00 0.000000e+00 2.286802e+04 # SC2-CA92 type=non-native eps=0.002390 sigma=3.817121
pair_coeff 3 179 0.000000e+00 0.000000e+00 1.268711e+04 # SC2-SC92 type=non-native eps=0.002390 sigma=3.634241
pair_coeff 3 180 0.000000e+00 0.000000e+00 2.286802e+04 # SC2-CA93 type=non-native eps=0.002390 sigma=3.817121
pair_coeff 3 181 0.000000e+00 0.000000e+00 1.792032e+05 # SC2-SC93 type=non-native eps=0.002390 sigma=4.531538
pair_coeff 3 182 0.000000e+00 0.000000e+00 2.286802e+04 # SC2-CA94 type=non-native eps=0.002390 sigma=3.817121
pair_coeff 3 183 0.000000e+00 0.000000e+00 3.680656e+04 # SC2-SC94 type=non-native eps=0.002390 sigma=3.971555
pair_coeff 3 184 0.000000e+00 0.000000e+00 2.286802e+04 # SC2-CA95 type=non-native eps=0.002390 sigma=3.817121
pair_coeff 3 185 0.000000e+00 0.000000e+00 2.286802e+04 # SC2-CA96 type=non-native eps=0.002390 sigma=3.817121
pair_coeff 3 186 0.000000e+00 0.000000e+00 1.268711e+04 # SC2-SC96 type=non-native eps=0.002390 sigma=3.634241
pair_coeff 3 187 0.000000e+00 0.000000e+00 2.286802e+04 # SC2-CA97 type=non-native eps=0.002390 sigma=3.817121
pair_coeff 3 188 0.000000e+00 0.000000e+00 2.286802e+04 # SC2-SC97 type=non-native eps=0.002390 sigma=3.817121
pair_coeff 3 189 0.000000e+00 0.000000e+00 2.286802e+04 # SC2-CA98 type=non-native eps=0.002390 sigma=3.817121
pair_coeff 3 190 0.000000e+00 0.000000e+00 1.268711e+04 # SC2-SC98 type=non-native eps=0.002390 sigma=3.634241
pair_coeff 3 191 0.000000e+00 0.000000e+00 2.286802e+04 # SC2-CA99 type=non-native eps=0.002390 sigma=3.817121
pair_coeff 3 192 0.000000e+00 0.000000e+00 2.286802e+04 # SC2-SC99 type=non-native eps=0.002390 sigma=3.817121
pair_coeff 3 193 0.000000e+00 0.000000e+00 2.286802e+04 # SC2-CA100 type=non-native eps=0.002390 sigma=3.817121
pair_coeff 3 194 0.000000e+00 0.000000e+00 5.795236e+03 # SC2-SC100 type=non-native eps=0.002390 sigma=3.404522
pair_coeff 3 195 0.000000e+00 0.000000e+00 2.286802e+04 # SC2-CA101 type=non-native eps=0.002390 sigma=3.817121
pair_coeff 3 196 0.000000e+00 0.000000e+00 3.680656e+04 # SC2-SC101 type=non-native eps=0.002390 sigma=3.971555
pair_coeff 3 197 0.000000e+00 0.000000e+00 2.286802e+04 # SC2-CA102 type=non-native eps=0.002390 sigma=3.817121
pair_coeff 3 198 0.000000e+00 0.000000e+00 5.795236e+03 # SC2-SC102 type=non-native eps=0.002390 sigma=3.404522
pair_coeff 3 199 0.000000e+00 0.000000e+00 2.286802e+04 # SC2-CA103 type=non-native eps=0.002390 sigma=3.817121
pair_coeff 3 200 0.000000e+00 0.000000e+00 1.268711e+04 # SC2-SC103 type=non-native eps=0.002390 sigma=3.634241
pair_coeff 3 201 0.000000e+00 0.000000e+00 2.286802e+04 # SC2-CA104 type=non-native eps=0.002390 sigma=3.817121
pair_coeff 3 202 0.000000e+00 0.000000e+00 5.795236e+03 # SC2-SC104 type=non-native eps=0.002390 sigma=3.404522
pair_coeff 3 203 0.000000e+00 0.000000e+00 2.286802e+04 # SC2-CA105 type=non-native eps=0.002390 sigma=3.817121
pair_coeff 3 204 0.000000e+00 0.000000e+00 3.680656e+04 # SC2-SC105 type=non-native eps=0.002390 sigma=3.971555
pair_coeff 3 205 0.000000e+00 0.000000e+00 2.286802e+04 # SC2-CA106 type=non-native eps=0.002390 sigma=3.817121
pair_coeff 3 206 0.000000e+00 0.000000e+00 2.286802e+04 # SC2-SC106 type=non-native eps=0.002390 sigma=3.817121
pair_coeff 3 207 0.000000e+00 0.000000e+00 2.286802e+04 # SC2-CA107 type=non-native eps=0.002390 sigma=3.817121
pair_coeff 3 208 0.000000e+00 0.000000e+00 5.795236e+03 # SC2-SC107 type=non-native eps=0.002390 sigma=3.404522
pair_coeff 4 4 0.000000e+00 0.000000e+00 4.009755e+04 # CA3-CA3 type=non-native eps=0.002390 sigma=4.000000
pair_coeff 4 5 0.000000e+00 0.000000e+00 4.009755e+04 # CA3-SC3 type=non-native eps=0.002390 sigma=4.000000
pair_coeff 4 6 0.000000e+00 0.000000e+00 4.009755e+04 # CA3-CA4 type=non-native eps=0.002390 sigma=4.000000
pair_coeff 4 7 0.000000e+00 0.000000e+00 4.009755e+04 # CA3-SC4 type=non-native eps=0.002390 sigma=4.000000
pair_coeff 4 8 0.000000e+00 0.000000e+00 4.009755e+04 # CA3-CA5 type=non-native eps=0.002390 sigma=4.000000
pair_coeff 4 9 0.000000e+00 0.000000e+00 3.442571e+03 # CA3-SC5 type=non-native eps=0.002390 sigma=3.259921
pair_coeff 4 10 0.000000e+00 0.000000e+00 4.009755e+04 # CA3-CA6 type=non-native eps=0.002390 sigma=4.000000
pair_coeff 4 11 0.000000e+00 0.000000e+00 1.085818e+04 # CA3-SC6 type=non-native eps=0.002390 sigma=3.587401
pair_coeff 4 12 0.000000e+00 0.000000e+00 4.009755e+04 # CA3-CA7 type=non-native eps=0.002390 sigma=4.000000
pair_coeff 4 13 0.000000e+00 0.000000e+00 2.286802e+04 # CA3-SC7 type=non-native eps=0.002390 sigma=3.817121
pair_coeff 4 14 0.000000e+00 0.000000e+00 4.009755e+04 # CA3-CA8 type=non-native eps=0.002390 sigma=4.000000
pair_coeff 4 15 0.000000e+00 0.000000e+00 6.317440e+04 # CA3-SC8 type=non-native eps=0.002390 sigma=4.154435
pair_coeff 4 16 0.000000e+00 0.000000e+00 4.009755e+04 # CA3-CA9 type=non-native eps=0.002390 sigma=4.000000
pair_coeff 4 17 0.000000e+00 0.000000e+00 6.317440e+04 # CA3-SC9 type=non-native eps=0.002390 sigma=4.154435
pair_coeff 4 18 0.000000e+00 0.000000e+00 4.009755e+04 # CA3-CA10 type=non-native eps=0.002390 sigma=4.000000
pair_coeff 4 19 0.000000e+00 0.000000e+00 6.317440e+04 # CA3-SC10 type=non-native eps=0.002390 sigma=4.154435
pair_coeff 4 20 0.000000e+00 0.000000e+00 4.009755e+04 # CA3-CA11 type=non-native eps=0.002390 sigma=4.000000
pair_coeff 4 21 0.000000e+00 0.000000e+00 4.009755e+04 # CA3-CA12 type=non-native eps=0.002390 sigma=4.000000
pair_coeff 4 22 0.000000e+00 0.000000e+00 2.286802e+04 # CA3-SC12 type=non-native eps=0.002390 sigma=3.817121
pair_coeff 4 23 0.000000e+00 0.000000e+00 4.009755e+04 # CA3-CA13 type=non-native eps=0.002390 sigma=4.000000
pair_coeff 4 24 0.000000e+00 0.000000e+00 1.293687e+05 # CA3-SC13 type=non-native eps=0.002390 sigma=4.410142
pair_coeff 4 25 0.000000e+00 0.000000e+00 4.009755e+04 # CA3-CA14 type=non-native eps=0.002390 sigma=4.000000
pair_coeff 4 26 0.000000e+00 0.000000e+00 1.293687e+05 # CA3-SC14 type=non-native eps=0.002390 sigma=4.410142
pair_coeff 4 27 0.000000e+00 0.000000e+00 4.009755e+04 # CA3-CA15 type=non-native eps=0.002390 sigma=4.000000
pair_coeff 4 28 0.000000e+00 0.000000e+00 3.442571e+03 # CA3-SC15 type=non-native eps=0.002390 sigma=3.259921
pair_coeff 4 29 0.000000e+00 0.000000e+00 4.009755e+04 # CA3-CA16 type=non-native eps=0.002390 sigma=4.000000
pair_coeff 4 30 0.000000e+00 0.000000e+00 4.009755e+04 # CA3-SC16 type=non-native eps=0.002390 sigma=4.000000
pair_coeff 4 31 0.000000e+00 0.000000e+00 4.009755e+04 # CA3-CA17 type=non-native eps=0.002390 sigma=4.000000
pair_coeff 4 32 0.000000e+00 0.000000e+00 4.009755e+04 # CA3-SC17 type=non-native eps=0.002390 sigma=4.000000
pair_coeff 4 33 0.000000e+00 0.000000e+00 4.009755e+04 # CA3-CA18 type=non-native eps=0.002390 sigma=4.000000
pair_coeff 4 34 0.000000e+00 0.000000e+00 1.293687e+05 # CA3-SC18 type=non-native eps=0.002390 sigma=4.410142
pair_coeff 4 35 0.000000e+00 0.000000e+00 4.009755e+04 # CA3-CA19 type=non-native eps=0.002390 sigma=4.000000
pair_coeff 4 36 0.000000e+00 0.000000e+00 3.442571e+03 # CA3-SC19 type=non-native eps=0.002390 sigma=3.259921
pair_coeff 4 37 0.000000e+00 0.000000e+00 4.009755e+04 # CA3-CA20 type=non-native eps=0.002390 sigma=4.000000
pair_coeff 4 38 0.000000e+00 0.000000e+00 2.286802e+04 # CA3-SC20 type=non-native eps=0.002390 sigma=3.817121
pair_coeff 4 39 0.000000e+00 0.000000e+00 4.009755e+04 # CA3-CA21 type=non-native eps=0.002390 sigma=4.000000
pair_coeff 4 40 0.000000e+00 0.000000e+00 4.009755e+04 # CA3-CA22 type=non-native eps=0.002390 sigma=4.000000
pair_coeff 4 41 0.000000e+00 0.000000e+00 6.317440e+04 # CA3-SC22 type=non-native eps=0.002390 sigma=4.154435
pair_coeff 4 42 0.000000e+00 0.000000e+00 4.009755e+04 # CA3-CA23 type=non-native eps=0.002390 sigma=4.000000
pair_coeff 4 43 0.000000e+00 0.000000e+00 1.737309e+05 # CA3-SC23 type=non-native eps=0.002390 sigma=4.519842
pair_coeff 4 44 0.000000e+00 0.000000e+00 4.009755e+04 # CA3-CA24 type=non-native eps=0.002390 sigma=4.000000
pair_coeff 4 45 0.000000e+00 0.000000e+00 4.009755e+04 # CA3-SC24 type=non-native eps=0.002390 sigma=4.000000
pair_coeff 4 46 0.000000e+00 0.000000e+00 4.009755e+04 # CA3-CA25 type=non-native eps=0.002390 sigma=4.000000
pair_coeff 4 47 0.000000e+00 0.000000e+00 6.317440e+04 # CA3-SC25 type=non-native eps=0.002390 sigma=4.154435
pair_coeff 4 48 0.000000e+00 0.000000e+00 4.009755e+04 # CA3-CA26 type=non-native eps=0.002390 sigma=4.000000
pair_coeff 4 49 0.000000e+00 0.000000e+00 3.442571e+03 # CA3-SC26 type=non-native eps=0.002390 sigma=3.259921
pair_coeff 4 50 0.000000e+00 0.000000e+00 4.009755e+04 # CA3-CA27 type=non-native eps=0.002390 sigma=4.000000
pair_coeff 4 51 0.000000e+00 0.000000e+00 1.085818e+04 # CA3-SC27 type=non-native eps=0.002390 sigma=3.587401
pair_coeff 4 52 0.000000e+00 0.000000e+00 4.009755e+04 # CA3-CA28 type=non-native eps=0.002390 sigma=4.000000
pair_coeff 4 53 0.000000e+00 0.000000e+00 4.009755e+04 # CA3-SC28 type=non-native eps=0.002390 sigma=4.000000
pair_coeff 4 54 0.000000e+00 0.000000e+00 4.009755e+04 # CA3-CA29 type=non-native eps=0.002390 sigma=4.000000
pair_coeff 4 55 0.000000e+00 0.000000e+00 4.009755e+04 # CA3-SC29 type=non-native eps=0.002390 sigma=4.000000
pair_coeff 4 56 0.000000e+00 0.000000e+00 4.009755e+04 # CA3-CA30 type=non-native eps=0.002390 sigma=4.000000
pair_coeff 4 57 0.000000e+00 0.000000e+00 4.009755e+04 # CA3-SC30 type=non-native eps=0.002390 sigma=4.000000
pair_coeff 4 58 0.000000e+00 0.000000e+00 4.009755e+04 # CA3-CA31 type=non-native eps=0.002390 sigma=4.000000
pair_coeff 4 59 0.000000e+00 0.000000e+00 1.737309e+05 # CA3-SC31 type=non-native eps=0.002390 sigma=4.519842
pair_coeff 4 60 0.000000e+00 0.000000e+00 4.009755e+04 # CA3-CA32 type=non-native eps=0.002390 sigma=4.000000
pair_coeff 4 61 0.000000e+00 0.000000e+00 9.272377e+04 # CA3-SC32 type=non-native eps=0.002390 sigma=4.289428
pair_coeff 4 62 0.000000e+00 0.000000e+00 4.009755e+04 # CA3-CA33 type=non-native eps=0.002390 sigma=4.000000
pair_coeff 4 63 0.000000e+00 0.000000e+00 1.085818e+04 # CA3-SC33 type=non-native eps=0.002390 sigma=3.587401
pair_coeff 4 64 0.000000e+00 0.000000e+00 4.009755e+04 # CA3-CA34 type=non-native eps=0.002390 sigma=4.000000
pair_coeff 4 65 0.000000e+00 0.000000e+00 1.293687e+05 # CA3-SC34 type=non-native eps=0.002390 sigma=4.410142
pair_coeff 4 66 0.000000e+00 0.000000e+00 4.009755e+04 # CA3-CA35 type=non-native eps=0.002390 sigma=4.000000
pair_coeff 4 67 0.000000e+00 0.000000e+00 3.442571e+03 # CA3-SC35 type=non-native eps=0.002390 sigma=3.259921
pair_coeff 4 68 0.000000e+00 0.000000e+00 4.009755e+04 # CA3-CA36 type=non-native eps=0.002390 sigma=4.000000
pair_coeff 4 69 0.000000e+00 0.000000e+00 4.009755e+04 # CA3-SC36 type=non-native eps=0.002390 sigma=4.000000
pair_coeff 4 70 0.000000e+00 0.000000e+00 4.009755e+04 # CA3-CA37 type=non-native eps=0.002390 sigma=4.000000
pair_coeff 4 71 0.000000e+00 0.000000e+00 6.317440e+04 # CA3-SC37 type=non-native eps=0.002390 sigma=4.154435
pair_coeff 4 72 0.000000e+00 0.000000e+00 4.009755e+04 # CA3-CA38 type=non-native eps=0.002390 sigma=4.000000
pair_coeff 4 73 0.000000e+00 0.000000e+00 2.286802e+04 # CA3-SC38 type=non-native eps=0.002390 sigma=3.817121
pair_coeff 4 74 0.000000e+00 0.000000e+00 4.009755e+04 # CA3-CA39 type=non-native eps=0.002390 sigma=4.000000
pair_coeff 4 75 0.000000e+00 0.000000e+00 2.286802e+04 # CA3-SC39 type=non-native eps=0.002390 sigma=3.817121
pair_coeff 4 76 0.000000e+00 0.000000e+00 4.009755e+04 # CA3-CA40 type=non-native eps=0.002390 sigma=4.000000
pair_coeff 4 77 0.000000e+00 0.000000e+00 1.293687e+05 # CA3-SC40 type=non-native eps=0.002390 sigma=4.410142
pair_coeff 4 78 0.000000e+00 0.000000e+00 4.009755e+04 # CA3-CA41 type=non-native eps=0.002390 sigma=4.000000
pair_coeff 4 79 0.000000e+00 0.000000e+00 3.442571e+03 # CA3-SC41 type=non-native eps=0.002390 sigma=3.259921
pair_coeff 4 80 0.000000e+00 0.000000e+00 4.009755e+04 # CA3-CA42 type=non-native eps=0.002390 sigma=4.000000
pair_coeff 4 81 0.000000e+00 0.000000e+00 1.293687e+05 # CA3-SC42 type=non-native eps=0.002390 sigma=4.410142
pair_coeff 4 82 0.000000e+00 0.000000e+00 4.009755e+04 # CA3-CA43 type=non-native eps=0.002390 sigma=4.000000
pair_coeff 4 83 0.000000e+00 0.000000e+00 6.317440e+04 # CA3-SC43 type=non-native eps=0.002390 sigma=4.154435
pair_coeff 4 84 0.000000e+00 0.000000e+00 4.009755e+04 # CA3-CA44 type=non-native eps=0.002390 sigma=4.000000
pair_coeff 4 85 0.000000e+00 0.000000e+00 6.317440e+04 # CA3-SC44 type=non-native eps=0.002390 sigma=4.154435
pair_coeff 4 86 0.000000e+00 0.000000e+00 4.009755e+04 # CA3-CA45 type=non-native eps=0.002390 sigma=4.000000
pair_coeff 4 87 0.000000e+00 0.000000e+00 4.009755e+04 # CA3-SC45 type=non-native eps=0.002390 sigma=4.000000
pair_coeff 4 88 0.000000e+00 0.000000e+00 4.009755e+04 # CA3-CA46 type=non-native eps=0.002390 sigma=4.000000
pair_coeff 4 89 0.000000e+00 0.000000e+00 2.286802e+04 # CA3-SC46 type=non-native eps=0.002390 sigma=3.817121
pair_coeff 4 90 0.000000e+00 0.000000e+00 4.009755e+04 # CA3-CA47 type=non-native eps=0.002390 sigma=4.000000
pair_coeff 4 91 0.000000e+00 0.000000e+00 3.442571e+03 # CA3-SC47 type=non-native eps=0.002390 sigma=3.259921
pair_coeff 4 92 0.000000e+00 0.000000e+00 4.009755e+04 # CA3-CA48 type=non-native eps=0.002390 sigma=4.000000
pair_coeff 4 93 0.000000e+00 0.000000e+00 4.009755e+04 # CA3-CA49 type=non-native eps=0.002390 sigma=4.000000
[...]
 4788000    29.997706    7.5280835   -9.4196093    5.4017838    7.2039348    4.3419741 
 4789000    27.642609    9.1465636   -9.3157696    6.3746287    7.6245948    4.4631097 
 4790000    26.885415    8.5253843   -9.2540872    6.6396617    6.1680079    4.9718018 
 4791000    30.181363    7.2376933   -9.2273913     5.336179    6.1013445    5.0275612 
 4792000    29.686576    7.4848099   -9.0920552    5.0733337    7.1496288    4.3539025 
 4793000    29.451717    8.1109113   -9.1694103    5.2763549    6.6205006     5.383466 
 4794000    28.052944    10.312296   -9.7405363    7.2708652    7.9175502    4.8644164 
 4795000    31.649375    8.0260082   -9.3765574    5.7710854    6.7607302    4.8707501 
 4796000     30.43735    7.1689203   -9.3745546    6.1831565    6.5229755    3.8373429 
 4797000    29.131103    7.3443392     -9.47817    6.1209449    7.0079145    3.6936498 
 4798000    28.913984    7.9346096   -9.1318184    5.1145685    7.7893168    4.1625427 
 4799000    28.654782    9.6671006    -9.336436    6.8329598    7.6586952    4.5118816 
 4800000    31.165077    8.4409038   -9.3183013    6.0471212    7.5687899     4.143294 
 4801000    32.717473    8.4486767   -9.3557845    7.0012837    6.6746257    4.1285518 
 4802000    30.209589    8.7542165   -9.2749788    6.9682793    6.4391454    4.6217706 
 4803000    30.282269    9.2372395    -9.517776    7.7991378    6.6625375    4.2933401 
 4804000    32.680914    8.7528139   -9.5008486    5.6459439    8.2134938    4.3942247 
 4805000    29.981915    7.9308759   -9.4179835    6.8117842    6.9930435    3.5440318 
 4806000    27.295826    8.8028559   -9.3435671    6.8277566    6.9200271    4.3986394 
 4807000    28.574019    7.0370069   -9.6949821    6.2081924    6.6500027    3.8737938 
 4808000    27.976267    8.6666681   -9.3603802    5.6953286    7.9159285    4.4157911 
 4809000    27.061285    6.5499703    -9.466779    5.9428759    6.2299526    3.8439207 
 4810000    28.133366    7.6305863   -9.3894043    5.5498677    6.9677017    4.5024211 
 4811000     29.67557    9.1860229   -9.3993513    5.9631925    8.3286767     4.293505 
 4812000    30.438631     8.053766    -9.208772    5.4584493    7.3723445    4.4317442 
 4813000    29.715214    8.1018652   -9.4917643    5.6978635    7.6694498    4.2263162 
 4814000    29.436365    8.2068121   -9.5080071    6.4609103    7.2235421    4.0303669 
 4815000    29.305438    10.124471   -8.9774486    6.2499541     7.866766    4.9851998 
 4816000    31.371632    9.6062931   -8.8798102    7.0295549    6.7377467    4.7188018 
 4817000    32.723623    8.4314524   -9.3256862    6.1978047    7.3595344    4.1997995 
 4818000    30.485714    9.8783567   -8.9670066     6.052846    7.8720698    4.9204475 
 4819000     31.59267    11.255269   -9.3802765    7.1532446     8.668509    4.8137918 
 4820000    32.627769    10.431594   -9.0891438    6.5027221    8.2184099    4.7996061 
 4821000    31.721258    8.7456414   -9.0826911    5.8668149    7.8288401    4.1326775 
 4822000     31.87917    6.7342209   -9.3354956     5.958316    6.7300659    3.3813346 
 4823000    32.852459    8.1648548   -9.5759119    6.0889857    7.8848473    3.7669338 
 4824000    30.117109    9.7006727   -9.4898778    6.7624598    7.2865014    5.1415893 
 4825000    28.108445    9.0431589   -9.2830113    6.1205268    7.7485924     4.457051 
 4826000     29.36145    6.9986847   -9.5074962     5.443315    7.1327953    3.9300706 
 4827000    30.954057    9.1216154   -9.2480114    6.6606026    7.2319923    4.4770319 
 4828000    31.958497    8.1108402   -9.2432155    6.3753167    6.7462775    4.2324616 
 4829000    30.118409    8.1677364   -9.3762722    5.2565032    8.3709077    3.9165977 
 4830000    30.009754    7.2179312   -9.5885702    5.5626838    6.6822908    4.5615267 
 4831000    30.110891    7.1910509   -9.3454673      5.47471    7.3188956    3.7429126 
 4832000    29.588268    8.2529301   -9.4110509     6.765702    7.0665347    3.8317442 
 4833000    27.843315    8.1732309   -9.4855398    6.6665911    7.1656942    3.8264854 
 4834000    25.338563    9.5896856   -9.3166714    6.3296877    7.6573171    4.9193522 
 4835000    30.526268    7.2692985   -9.6106351    5.8510419    7.0074139    4.0214778 
 4836000    29.447817    8.8905129   -9.5714681     7.402135    6.5261119    4.5337341 
 4837000    28.929001    9.2533891   -9.3642275    5.5598309    8.5116014    4.5461844 
 4838000    29.650162    9.3455568   -9.2906296    7.0469945    7.7926332    3.7965587 
 4839000       29.173    8.4692386   -9.4070086    5.4870663    7.7435016    4.6456793 
 4840000    30.344016    9.3883687   -9.3042441    5.9689546    8.4429873    4.2806708 
 4841000    28.417539    10.759604   -9.2726615    7.1308732    7.1328969     5.768495 
 4842000     29.40735    8.4839867   -9.3006607    5.8792498    7.1874961    4.7179014 
 4843000    29.700262    8.0519258   -9.1900731    6.0712327    6.6795991    4.4911671 
 4844000      29.8838    9.1846813   -9.3834804    6.3537832    7.5063572    4.7080213 
 4845000    30.598395    8.0517594   -9.3976122    6.2654543    6.9024807    4.2814366 
 4846000     31.02321     7.847287   -9.2960656    6.0960304    7.2231997    3.8241226 
 4847000    29.335469    8.0551964   -9.6418342    5.1409355    7.7501714    4.8059236 
 4848000    29.258192    7.9835755   -9.3345076    5.7030609    6.7916952     4.823327 
 4849000    31.954715    6.9693901   -9.4048254    5.3591591    6.6937415     4.321315 
 4850000    30.905998    6.9609233   -9.5444437    5.9536427    5.8033604     4.748364 
 4851000    27.077929    9.7733555   -9.4306739    7.0771645    7.7314423    4.3954226 
 4852000    28.340891    9.3675076   -9.5191723    6.3564567    6.3874438    6.1427794 
 4853000    28.809903    8.4999969   -9.7263492    5.7677527    7.6764422    4.7821512 
 4854000    30.504423    7.8313211   -9.3046424    5.8807614    7.0496886    4.2055136 
 4855000    31.245244    7.6933347    -9.276459    5.2467048    6.7235853    4.9995036 
 4856000     28.14373    7.6024021   -9.4701247    5.9598413    6.6120571    4.5006284 
 4857000    27.103646    6.7612118   -9.6463076    5.0953056    7.3571457    3.9550682 
 4858000    29.412277    7.9553999   -9.7203509    5.8049501    7.4043426    4.4664581 
 4859000    27.958213    7.0032356   -9.3027125    5.3515984    6.6741285    4.2802212 
 4860000    27.015641    7.4370601    -9.508272     5.724931    7.5065445    3.7138566 
 4861000    30.303833    7.7184723   -9.5319201    6.2560297      7.25231    3.7420527 
 4862000    30.874914    9.6495422    -9.592717    6.0921496    8.5591394    4.5909703 
 4863000    31.812616    8.5046214   -9.5017192    5.5909981    7.5675829    4.8477596 
 4864000    32.153709    7.9215287   -9.4626771    5.8097246    7.2232459    4.3512352 
 4865000    30.918847    7.6787837   -9.7745304    6.0514465    6.4711461    4.9307215 
 4866000    27.848862    9.2094624    -9.525899    5.9470833    8.1180452     4.670233 
 4867000    29.396216    9.1831343   -9.5929715    6.5961567    7.3079156    4.8720335 
 4868000    29.869469    9.5127184    -9.422941    6.3464533    7.9724112    4.6167949 
 4869000    32.940254    7.6342986   -9.5579657    6.2238648      6.82788    4.1405195 
 4870000    31.620728    7.9555714   -9.5245144    6.6996631    6.5027988    4.2776239 
 4871000     33.19025    8.5908053   -9.3658909    7.3790657    6.6583239    3.9193066 
 4872000    30.099771    8.5377015   -9.2557565    5.7242147    7.7849543    4.2842889 
 4873000    31.284563    8.1116624   -9.1146036    5.8103333    6.6982412    4.7176914 
 4874000    27.661601    9.5789161   -9.3564593    5.7720479    8.6973368    4.4659906 
 4875000    33.330345    9.6533792    -9.419948    6.9371204    7.9973993    4.1388074 
 4876000    31.046418    9.9332192   -9.2139844     6.941422     7.031811    5.1739706 
 4877000    32.058529    8.3796608   -9.5357612    6.4545486    7.1204225    4.3404509 
 4878000    29.811243    8.2593497   -9.4615668    6.3429179    7.0442852    4.3337133 
 4879000     29.55381    9.7231155   -9.4410512    6.4719207    8.1594665    4.5327795 
 4880000    29.483137    8.9227416   -9.1576061    6.2544812    6.8503813    4.9754852 
 4881000    30.780672    8.9256208   -9.3349304    5.8021833    7.2825445    5.1758233 
 4882000    30.989044    9.2551303   -9.2795785    6.8034119    6.8998007    4.8314962 
 4883000    31.554496    9.6645795     -9.07048     6.808554     7.370286    4.5562194 
 4884000    31.186725    9.9529666   -9.4697363    6.9092107    7.3020168    5.2114754 
 4885000    29.674696    11.563321    -9.294093    6.8790452    8.9066055    5.0717632 
 4886000    33.636674    8.4329765   -9.1060003    6.3338603    7.1529434     4.052173 
 4887000    30.723096    11.115504   -9.0726564    7.3026645    8.5570326    4.3284631 
 4888000    32.386377    11.167884   -9.1096393     7.081258    8.4142718    4.7819933 
 4889000     31.06022    10.074873   -8.9351356    6.9312969    7.0697795     5.008932 
 4890000    29.816842    9.9204952     -9.32515    6.8677032    7.7047675    4.6731745 
 4891000     32.53881    9.3183796   -9.3325118    6.3703282    8.0574955    4.2230677 
 4892000    29.809088    8.6953918   -9.3801919    6.4243334    7.3190704      4.33218 
 4893000    29.791259    8.1296121   -9.4861039    5.7677165    7.5726848    4.2753147 
 4894000    28.208684    8.1421676   -9.4422561    5.2280898    7.7507929    4.6055409 
 4895000    28.047025    8.8762933    -9.693787    6.1759195     7.754592    4.6395689 
 4896000    28.344203    7.4276412    -9.632671    6.2675474    6.4257246    4.3670401 
 4897000    29.136848    8.8931396   -9.4064226    7.1917602    6.7045971     4.403205 
 4898000    29.970153    8.5430606   -9.1800257    5.8924672    7.6966721     4.133947 
 4899000    31.205362     7.413268   -9.5490625    5.1602722     7.457267    4.3447913 
 4900000     30.89664    8.4865733   -8.8292181    5.5198982    7.9079593    3.8879339 
 4901000    30.101679    8.6032319   -9.3490675    5.7086136    7.3332732    4.9104126 
 4902000    29.423094    7.9962699   -9.3764542    5.1370005    7.9294232    4.3063004 
 4903000    29.823298    7.4392691    -9.719297    6.1451769    6.8450377    4.1683516 
 4904000    31.159186    7.2381984   -9.2929171     5.381835    6.9802327    4.1690477 
 4905000    29.993914    8.6665932   -9.1703399    5.9890298    7.2872848    4.5606186 
 4906000    28.314512    9.3793288   -9.2061351    6.0044905    7.3933003    5.1876731 
 4907000    28.924697    8.7723347   -9.1824193    5.5902047    7.7891956    4.5753537 
 4908000    30.070132    7.7889758   -9.5175945    5.1516842    7.2036978    4.9511883 
 4909000    30.116641    7.9010036   -9.5023015    4.8679098    7.8947018    4.6406935 
 4910000    28.661975    7.4819771   -9.2427297    5.4359405    7.2168101    4.0719563 
 4911000    30.665348    7.2522234   -9.2286439    5.9477413     6.796469     3.736657 
 4912000    30.964021    7.3877417   -9.2095247    5.5490078    6.9343433    4.1139152 
 4913000    31.058805    9.4467042    -9.497452    6.5170608     8.138791    4.2883045 
 4914000    30.178138    9.0225054   -9.5651873    7.2594642    6.8845493    4.4436792 
 4915000    30.316438    9.6096762   -9.2837719    6.6834357    7.6661908    4.5438217 
 4916000    29.462031    10.626861   -9.1191056    6.8969004    7.4501075    5.3989584 
 4917000     29.84125    10.512086   -9.5162835    7.1014705    8.3066066    4.6202925 
 4918000    29.154551    8.9739814     -9.45947    6.4238312    7.4661776    4.5434426 
 4919000    29.530024    7.8026054   -9.6215959    5.8662747    7.0637443    4.4941823 
 4920000    30.378313    7.7783986   -9.3500871    5.1630405    7.9100813    4.0553639 
 4921000    29.432781    7.4001531   -9.4982545     5.491183    7.0205449    4.3866796 
 4922000     30.65152    9.4643801   -9.5139199    6.5011843    7.9984919    4.4786239 
 4923000    30.526751    9.6005732   -9.5041967    6.2269905    7.4513029    5.4264765 
 4924000    29.223817    9.8982765   -9.0733806    5.8227893    7.1711036    5.9777642 
 4925000    32.058735    7.0437569    -9.366143    5.4186232    6.7913694    4.1999073 
 4926000    30.609987    8.2109763    -9.059706     5.198895    8.0135479    4.0582395 
 4927000    30.605635    7.7740807   -9.0931337    5.6206543    6.8522332    4.3943269 
 4928000     27.29498    7.9857518    -9.406077    5.5558186    6.8911902      4.94482 
 4929000    30.270988    7.3781943    -9.595384    4.9558112    8.2451587    3.7726083 
 4930000    29.182611    9.8881388   -9.4052435    6.5233761    7.9182968    4.8517093 
 4931000    29.458034    9.1143704   -9.2339781    6.6773438     7.702646    3.9683588 
 4932000    29.749189    8.2486687   -9.4950125    6.2548832    7.0918031    4.3969948 
 4933000    31.809999    6.9346776   -9.6270922    6.1840015     6.553422    3.8243464 
 4934000    32.972573    7.2009917   -9.0682102    5.1267333    7.0699857    4.0724828 
 4935000    30.882144    7.5059726   -9.3770417    5.7182272    6.9185875    4.2461998 
 4936000    29.305989    7.9601908   -9.2564474    5.8451522    6.7732521    4.5982338 
 4937000    30.833884    7.1434108   -9.5483649    4.8582364    7.2624224    4.5711169 
 4938000    32.598435    7.0190427   -9.4110995    5.4177282    6.8075769    4.2048371 
 4939000    28.818781    9.4352572   -9.1889086    5.0453985    7.9306913     5.648076 
 4940000    28.966927     8.656427   -9.5728753    6.0694892    6.9399802    5.2198328 
 4941000    30.805407    7.1099917   -9.4682933    5.3239168    7.2411589    4.0132093 
 4942000    29.782601    7.8350829   -9.3467228    5.9061456    7.3155916    3.9600683 
 4943000    29.229319    7.6066859   -9.2633269     5.648368    6.9292585    4.2923863 
 4944000    28.290338    8.0077662   -9.1618206    6.7359456    6.4618677    3.9717735 
 4945000    29.990549    6.0748673   -9.3043841    6.1202698    5.8594358    3.3995458 
 4946000    27.161414     8.314467   -9.3579931    6.4510511    6.8965105    4.3248985 
 4947000    29.968862    7.6911332   -9.1834073    5.6344704    6.9481784    4.2918917 
 4948000    29.309086    9.3505993   -9.4635386    6.3613337    8.0339664    4.4188378 
 4949000      27.7237    11.643279    -9.152389    8.0360968    7.3389911    5.4205798 
 4950000    30.286717    8.5105677   -9.6052601    6.9214242    6.3992203    4.7951833 
 4951000    29.925562    9.1855851   -9.3058531    7.4469722     6.552316      4.49215 
 4952000    31.565984    8.2697046   -9.6643946    5.5593201    7.2581315    5.1166476 
 4953000    29.640948    8.1137809   -9.4851002    6.1665703    7.6429994    3.7893114 
 4954000    30.059337    6.0962998   -9.3733261     4.997215     6.869697    3.6027139 
 4955000    27.064041    7.2874942   -9.5182119    5.4957829    6.8793578    4.4305654 
 4956000    29.278606    7.1486641   -9.3951398    5.8226784    7.1824363    3.5386893 
 4957000    29.336279    7.1639825   -9.5646449    5.8340423    7.1589474    3.7356377 
 4958000    31.332248    7.4546884   -9.5636673    5.8271854    6.8369756    4.3541947 
 4959000     27.63419    9.0650114   -9.4343189    6.0210571    7.4535332      5.02474 
 4960000    30.280257    7.3736878   -9.6816866    5.6792315    7.4146404    3.9615025 
 4961000    31.376235     8.036564   -9.5944025    6.5266886    7.0945823    4.0096957 
 4962000    33.122064    9.5579492   -9.5949236    6.5824709    7.8943838    4.6760181 
 4963000    31.594046    9.1324406   -9.4371315    6.9990883    7.4634082    4.1070756 
 4964000    29.885637    8.1368037    -8.827961     5.601925     7.835363    3.5274767 
 4965000    28.185477    9.2919212   -9.1624803     6.679083    7.7085678    4.0667507 
 4966000      28.3144    8.0978504   -9.2861553    5.5954977    7.7806873    4.0078208 
 4967000    30.639636    8.1924795   -9.6095666    6.1552837    7.3512989    4.2954634 
 4968000    32.738418    8.6026715   -9.7305236    5.5899832    7.9444143    4.7987976 
 4969000    30.515982    9.1200225   -9.2907609    6.3674154    7.4262754    4.6170926 
 4970000    31.855839    8.9967894   -9.5094398    6.5350801    7.6622234    4.3089256 
 4971000     29.24643    9.6536695   -9.4472367    6.3220074    8.4900582    4.2888406 
 4972000    29.169445    9.4146638   -9.6602887     5.676133    8.6413192    4.7575003 
 4973000    28.455267     9.875515   -9.6520778    6.3231782     8.476526    4.7278887 
 4974000    29.304019     9.060939   -9.4139648    6.0078845    8.0583003     4.408719 
 4975000    33.798838    7.0793737   -9.5378074    4.7431295    8.0407288    3.8333228 
 4976000     33.04848    6.7483986   -9.3472659    6.1472982    6.0687759    3.8795903 
 4977000    28.479619    10.444435   -9.0362436    7.2664332    7.9320841    4.2821618 
 4978000    32.319951    8.0917099   -9.5339581    6.3219272    7.3423635    3.9613773 
 4979000    29.357271    8.5807381   -9.5148956    6.1676678    7.1765172    4.7514488 
 4980000    29.590835    8.0216395   -9.4070403    6.4254211    6.5895835    4.4136752 
 4981000    27.792161    7.6007253   -9.1881767    5.6895508    7.3248482    3.7745031 
 4982000    26.602039    7.2535304   -9.6277724    6.1186637    6.4522167    4.3104224 
 4983000    29.372592    6.4786133   -9.6348955    5.8490242    6.8122058    3.4522789 
 4984000    28.727477    7.2318361   -9.5634653    5.4944151     7.376056    3.9248303 
 4985000    30.864323    9.3576724   -9.0952691    6.0865192    8.4475069    3.9189154 
 4986000    31.568769    7.0430084   -9.6355317    5.1211882    7.2263855    4.3309665 
 4987000    29.908012    9.6803882   -9.3675339    6.5281346    7.6250859    4.8947017 
 4988000    28.611026    9.7177333   -9.2326898     6.414471    8.0619503    4.4740018 
 4989000    27.662554    9.2812006   -9.7022902    6.6676744    7.2874631    5.0283533 
 4990000    30.555607    7.9013936     -9.71265    5.7548442    7.6607608    4.1984386 
 4991000    30.533702    8.0891956   -9.5002315     5.790965    7.2102401    4.5882221 
 4992000    30.480177    9.1658166   -9.3539208    5.4398262    7.9540488    5.1258625 
 4993000    31.250901    8.1245254   -9.2373425    5.9952254    7.1728844    4.1937581 
 4994000    30.063148     8.491687   -8.9703891    6.2029188    6.9371823    4.3219751 
 4995000    29.692565    7.8184726   -9.2109198    6.7140681    6.8690886    3.4462357 
 4996000    29.277339    8.5322127   -9.3384885    6.3246572     7.598652     3.947392 
 4997000    30.286322    6.5348233   -9.5522791    6.7226987    5.7271844    3.6372193 
 4998000    29.427475    7.9014304   -9.3323101     5.828646    7.2905842    4.1145103 
 4999000    28.605289    8.5838751   -9.5336128    6.7062413     7.146179    4.2650677 
 5000000      29.5769    9.2896656   -9.3990481    6.7190834    7.1529271     4.816703 
Loop time of 570.595 on 4 procs for 5000000 steps with 208 atoms

Performance: 378.552 ns/day, 0.063 hours/ns, 8762.775 timesteps/s
103.0% CPU use with 4 MPI tasks x no OpenMP threads

MPI task timing breakdown:
Section |  min time  |  avg time  |  max time  |%varavg| %total
---------------------------------------------------------------
Pair    | 273.82     | 307.31     | 355.26     | 175.8 | 53.86
Bond    | 84.9       | 93.84      | 107.84     |  94.0 | 16.45
Neigh   | 1.5423     | 1.5476     | 1.5599     |   0.6 |  0.27
Comm    | 90.624     | 133.82     | 170.99     | 283.8 | 23.45
Output  | 0.2625     | 0.33214    | 0.53708    |  20.5 |  0.06
Modify  | 25.186     | 28.014     | 30.973     |  39.3 |  4.91
Other   |            | 5.733      |            |       |  1.00

Nlocal:    52 ave 62 max 41 min
Histogram: 1 0 0 1 0 0 0 1 0 1
Nghost:    156 ave 167 max 146 min
Histogram: 1 0 1 0 0 0 1 0 0 1
Neighs:    4214.5 ave 4976 max 3219 min
Histogram: 1 0 0 0 0 1 1 0 0 1

Total # of neighbors = 16858
Ave neighs/atom = 81.0481
Ave special neighs/atom = 8.21154
Neighbor list builds = 10372
Dangerous builds = 0
clear

next t
next a
jump SELF loopstart
# set logfile
log		log.run.$t
log		log.run.34
