
# Box and units  (use LJ units and periodic boundaries)
units		real
# so:
#    mass = grams/mole		# same in gromacs
#    distance = Angstroms	# nm in gromacs
#    time = femtoseconds	# ps in gromacs
#    energy = Kcal/mole		# kcal/mol in gromacs
#    velocity = Angstroms/femtosecond	# ...
#    force = Kcal/mole-Angstrom	# ...
#    temperature = Kelvin	# same in gromacs
#    pressure = atmospheres	# same in gromacs
#    dynamic viscosity = Poise	# no idea
dimension	3
atom_style	molecular
boundary	p p p


# Pair interactions require lists of neighbours to be calculated
neighbor	5.0 nsq
neigh_modify	every 1 delay 10 check yes

# define interactions
pair_style	lj12106/cut  30.0 # same as in md_sample.mdp from the smog-model web-tool
pair_modify	shift yes
bond_style	harmonic
angle_style	harmonic
dihedral_style	charmm
special_bonds	lj 0.0 0.0 0.0 angle yes dihedral yes # 3 exclusions

# READ "start" data file
read_data ../../protein/cystatin/3GAX/7-coarsegrained/data.input
  orthogonal box = (-200 -200 -200) to (200 200 200)
  1 by 2 by 2 MPI processor grid
  reading atoms ...
  208 atoms
  scanning bonds ...
  2 = max bonds/atom
  scanning angles ...
  3 = max angles/atom
  scanning dihedrals ...
  8 = max dihedrals/atom
  reading bonds ...
  208 bonds
  reading angles ...
  306 angles
  reading dihedrals ...
  680 dihedrals
  4 = max # of 1-2 neighbors
  5 = max # of 1-3 neighbors
  13 = max # of 1-4 neighbors
  620 = # of 1-3 neighbors before angle trim
  612 = # of 1-3 neighbors after angle trim
  1129 = # of 1-4 neighbors before dihedral trim
  680 = # of 1-4 neighbors after dihedral trim
  12 = max # of special neighbors

# define coeffs
include ../../protein/cystatin/3GAX/7-coarsegrained/settings.param
pair_coeff 1 1 0.000000e+00 0.000000e+00 4.009755e+04 # CA1-CA1 type=non-native eps=0.002390 sigma=4.000000
pair_coeff 1 2 -7.705603e+02 0.000000e+00 1.242182e+06 # CA1-CA2 type=native eps=0.119500 sigma=3.843570
pair_coeff 1 3 -9.297010e+02 0.000000e+00 1.808251e+06 # CA1-SC2 type=native eps=0.119500 sigma=3.965740
pair_coeff 1 4 -1.512188e+04 0.000000e+00 5.979899e+08 # CA1-CA3 type=native eps=0.095600 sigma=6.551685
pair_coeff 1 5 -8.460246e+04 0.000000e+00 1.247834e+10 # CA1-SC3 type=native eps=0.143400 sigma=8.158944
pair_coeff 1 6 -3.163870e+05 0.000000e+00 1.570618e+11 # CA1-CA4 type=native eps=0.159333 sigma=9.988041
pair_coeff 1 7 -2.450490e+05 0.000000e+00 1.884383e+11 # CA1-SC4 type=native eps=0.079667 sigma=10.743795
pair_coeff 1 8 -1.357535e+06 0.000000e+00 2.570294e+12 # CA1-CA5 type=native eps=0.179250 sigma=12.484667
pair_coeff 1 9 -3.855445e+05 0.000000e+00 6.219438e+11 # CA1-SC5 type=native eps=0.059750 sigma=12.155825
pair_coeff 1 10 -8.404397e+06 0.000000e+00 7.388483e+13 # CA1-CA6 type=native eps=0.239000 sigma=16.125497
pair_coeff 1 11 0.000000e+00 0.000000e+00 1.085818e+04 # CA1-SC6 type=non-native eps=0.002390 sigma=3.587401
pair_coeff 1 12 -1.114102e+07 0.000000e+00 2.596701e+14 # CA1-CA7 type=native eps=0.119500 sigma=18.970896
pair_coeff 1 13 -1.698875e+07 0.000000e+00 6.038028e+14 # CA1-SC7 type=native eps=0.119500 sigma=20.352945
pair_coeff 1 14 -3.651625e+07 0.000000e+00 1.394808e+15 # CA1-CA8 type=native eps=0.239000 sigma=20.598853
pair_coeff 1 15 0.000000e+00 0.000000e+00 6.317440e+04 # CA1-SC8 type=non-native eps=0.002390 sigma=4.154435
pair_coeff 1 16 -6.293775e+06 0.000000e+00 1.243042e+14 # CA1-CA9 type=native eps=0.079667 sigma=18.454435
pair_coeff 1 17 -3.907556e+06 0.000000e+00 2.395762e+13 # CA1-SC9 type=native eps=0.159333 sigma=15.185465
pair_coeff 1 18 -1.774906e+07 0.000000e+00 6.590565e+14 # CA1-CA10 type=native eps=0.119500 sigma=20.502000
pair_coeff 1 19 -2.769455e+07 0.000000e+00 1.604578e+15 # CA1-SC10 type=native eps=0.119500 sigma=22.080017
pair_coeff 1 20 -1.501070e+07 0.000000e+00 2.356915e+14 # CA1-CA11 type=native eps=0.239000 sigma=17.762149
pair_coeff 1 21 -6.366577e+06 0.000000e+00 7.066475e+13 # CA1-CA12 type=native eps=0.143400 sigma=16.764392
pair_coeff 1 22 -3.008667e+06 0.000000e+00 2.367175e+13 # CA1-SC12 type=native eps=0.095600 sigma=15.830004
pair_coeff 1 23 -3.575635e+07 0.000000e+00 1.337360e+15 # CA1-CA13 type=native eps=0.239000 sigma=20.526782
pair_coeff 1 24 0.000000e+00 0.000000e+00 1.293687e+05 # CA1-SC13 type=non-native eps=0.002390 sigma=4.410142
pair_coeff 1 25 -1.366155e+07 0.000000e+00 5.856835e+14 # CA1-CA14 type=native eps=0.079667 sigma=20.999012
pair_coeff 1 26 -5.929064e+07 0.000000e+00 5.515764e+15 # CA1-SC14 type=native eps=0.159333 sigma=23.893233
pair_coeff 1 27 -1.221687e+07 0.000000e+00 2.341820e+14 # CA1-CA15 type=native eps=0.159333 sigma=18.362730
pair_coeff 1 28 -3.671344e+06 0.000000e+00 4.229739e+13 # CA1-SC15 type=native eps=0.079667 sigma=16.868886
pair_coeff 1 29 -1.189860e+07 0.000000e+00 3.702319e+14 # CA1-CA16 type=native eps=0.095600 sigma=19.906794
pair_coeff 1 30 -2.268682e+07 0.000000e+00 8.973010e+14 # CA1-SC16 type=native eps=0.143400 sigma=20.718855
pair_coeff 1 31 -3.958747e+07 0.000000e+00 3.278593e+15 # CA1-CA17 type=native eps=0.119500 sigma=23.434731
pair_coeff 1 32 -6.627091e+07 0.000000e+00 9.187935e+15 # CA1-SC17 type=native eps=0.119500 sigma=25.536076
pair_coeff 1 33 -9.260876e+06 0.000000e+00 6.279778e+14 # CA1-CA18 type=native eps=0.034143 sigma=22.666634
pair_coeff 1 34 -4.179269e+07 0.000000e+00 2.131521e+15 # CA1-SC18 type=native eps=0.204857 sigma=21.615728
pair_coeff 1 35 -3.300542e+07 0.000000e+00 1.519328e+15 # CA1-CA19 type=native eps=0.179250 sigma=21.249532
pair_coeff 1 36 -7.586071e+06 0.000000e+00 2.407886e+14 # CA1-SC19 type=native eps=0.059750 sigma=19.972917
pair_coeff 1 37 -3.792383e+07 0.000000e+00 3.761028e+15 # CA1-CA20 type=native eps=0.095600 sigma=24.149273
pair_coeff 1 38 -6.262869e+07 0.000000e+00 6.838133e+15 # CA1-SC20 type=native eps=0.143400 sigma=24.539499
pair_coeff 1 39 -1.645308e+08 0.000000e+00 2.831631e+16 # CA1-CA21 type=native eps=0.239000 sigma=26.473004
pair_coeff 1 40 -4.325208e+07 0.000000e+00 5.870530e+15 # CA1-CA22 type=native eps=0.079667 sigma=25.445836
pair_coeff 1 41 -7.660248e+07 0.000000e+00 9.207019e+15 # CA1-SC22 type=native eps=0.159333 sigma=24.935478
pair_coeff 1 42 -4.752070e+07 0.000000e+00 7.086454e+15 # CA1-CA23 type=native eps=0.079667 sigma=25.848144
pair_coeff 1 43 -1.132306e+08 0.000000e+00 2.011689e+16 # CA1-SC23 type=native eps=0.159333 sigma=26.613654
pair_coeff 1 44 -1.226562e+08 0.000000e+00 3.934241e+16 # CA1-CA24 type=native eps=0.095600 sigma=29.367496
pair_coeff 1 45 -1.917971e+08 0.000000e+00 6.413202e+16 # CA1-SC24 type=native eps=0.143400 sigma=29.571758
pair_coeff 1 46 -3.726405e+08 0.000000e+00 1.452520e+17 # CA1-CA25 type=native eps=0.239000 sigma=30.337307
pair_coeff 1 47 0.000000e+00 0.000000e+00 6.317440e+04 # CA1-SC25 type=non-native eps=0.002390 sigma=4.154435
pair_coeff 1 48 0.000000e+00 0.000000e+00 4.009755e+04 # CA1-CA26 type=non-native eps=0.002390 sigma=4.000000
pair_coeff 1 49 0.000000e+00 0.000000e+00 3.442571e+03 # CA1-SC26 type=non-native eps=0.002390 sigma=3.259921
pair_coeff 1 50 -2.243899e+08 0.000000e+00 1.053365e+17 # CA1-CA27 type=native eps=0.119500 sigma=31.292067
pair_coeff 1 51 -2.322741e+08 0.000000e+00 1.128687e+17 # CA1-SC27 type=native eps=0.119500 sigma=31.472686
pair_coeff 1 52 0.000000e+00 0.000000e+00 4.009755e+04 # CA1-CA28 type=non-native eps=0.002390 sigma=4.000000
pair_coeff 1 53 0.000000e+00 0.000000e+00 4.009755e+04 # CA1-SC28 type=non-native eps=0.002390 sigma=4.000000
pair_coeff 1 54 -3.784337e+08 0.000000e+00 3.745086e+17 # CA1-CA29 type=native eps=0.095600 sigma=35.433740
pair_coeff 1 55 -5.154005e+08 0.000000e+00 4.631061e+17 # CA1-SC29 type=native eps=0.143400 sigma=34.868046
pair_coeff 1 56 -5.984279e+08 0.000000e+00 9.364955e+17 # CA1-CA30 type=native eps=0.095600 sigma=38.246114
pair_coeff 1 57 -1.473243e+09 0.000000e+00 3.783898e+18 # CA1-SC30 type=native eps=0.143400 sigma=41.538345
pair_coeff 1 58 -5.624528e+08 0.000000e+00 6.618266e+17 # CA1-CA31 type=native eps=0.119500 sigma=36.471030
pair_coeff 1 59 -9.550739e+08 0.000000e+00 1.908297e+18 # CA1-SC31 type=native eps=0.119500 sigma=39.835767
pair_coeff 1 60 -2.872588e+08 0.000000e+00 2.014029e+17 # CA1-CA32 type=native eps=0.102429 sigma=33.455720
pair_coeff 1 61 -2.934573e+08 0.000000e+00 1.576413e+17 # CA1-SC32 type=native eps=0.136571 sigma=32.003134
pair_coeff 1 62 -2.282432e+08 0.000000e+00 9.082108e+16 # CA1-CA33 type=native eps=0.143400 sigma=30.441763
pair_coeff 1 63 -1.446193e+08 0.000000e+00 5.469338e+16 # CA1-SC33 type=native eps=0.095600 sigma=30.184900
pair_coeff 1 64 -8.143585e+07 0.000000e+00 2.081108e+16 # CA1-CA34 type=native eps=0.079667 sigma=28.276013
pair_coeff 1 65 -2.801840e+08 0.000000e+00 1.231743e+17 # CA1-SC34 type=native eps=0.159333 sigma=30.951696
pair_coeff 1 66 -9.613957e+07 0.000000e+00 1.289096e+16 # CA1-CA35 type=native eps=0.179250 sigma=25.394256
pair_coeff 1 67 -2.327960e+07 0.000000e+00 2.267531e+15 # CA1-SC35 type=native eps=0.059750 sigma=24.076939
pair_coeff 1 68 -6.453197e+07 0.000000e+00 1.306812e+16 # CA1-CA36 type=native eps=0.079667 sigma=27.200573
pair_coeff 1 69 -1.717751e+08 0.000000e+00 4.629710e+16 # CA1-SC36 type=native eps=0.159333 sigma=28.527952
pair_coeff 1 70 -4.578683e+07 0.000000e+00 4.385844e+15 # CA1-CA37 type=native eps=0.119500 sigma=24.009905
pair_coeff 1 71 -4.298001e+07 0.000000e+00 3.864604e+15 # CA1-SC37 type=native eps=0.119500 sigma=23.758085
pair_coeff 1 72 -8.704802e+06 0.000000e+00 3.170443e+14 # CA1-CA38 type=native eps=0.059750 sigma=20.436123
pair_coeff 1 73 -2.120090e+07 0.000000e+00 6.268870e+14 # CA1-SC38 type=native eps=0.179250 sigma=19.738350
pair_coeff 1 74 -5.527970e+06 0.000000e+00 1.278596e+14 # CA1-CA39 type=native eps=0.059750 sigma=18.946673
pair_coeff 1 75 -2.003311e+07 0.000000e+00 5.597287e+14 # CA1-SC39 type=native eps=0.179250 sigma=19.552841
pair_coeff 1 76 -1.999236e+06 0.000000e+00 1.254272e+13 # CA1-CA40 type=native eps=0.079667 sigma=15.243789
pair_coeff 1 77 -9.248936e+05 0.000000e+00 1.342199e+12 # CA1-SC40 type=native eps=0.159333 sigma=11.943342
pair_coeff 1 78 -1.336872e+06 0.000000e+00 3.738970e+12 # CA1-CA41 type=native eps=0.119500 sigma=13.323408
pair_coeff 1 79 -2.000252e+06 0.000000e+00 8.370310e+12 # CA1-SC41 type=native eps=0.119500 sigma=14.248893
pair_coeff 1 80 -1.593516e+05 0.000000e+00 6.640414e+10 # CA1-CA42 type=native eps=0.095600 sigma=9.700887
pair_coeff 1 81 -1.208795e+05 0.000000e+00 2.547394e+10 # CA1-SC42 type=native eps=0.143400 sigma=8.658890
pair_coeff 1 82 -3.365084e+04 0.000000e+00 5.922484e+09 # CA1-CA43 type=native eps=0.047800 sigma=8.402780
pair_coeff 1 83 -7.165821e+05 0.000000e+00 6.714041e+11 # CA1-SC43 type=native eps=0.191200 sigma=11.103452
pair_coeff 1 84 -1.296119e+04 0.000000e+00 4.393107e+08 # CA1-CA44 type=native eps=0.095600 sigma=6.385469
pair_coeff 1 85 -1.691210e+03 0.000000e+00 4.986385e+06 # CA1-SC44 type=native eps=0.143400 sigma=4.250464
pair_coeff 1 86 -5.114270e+04 0.000000e+00 1.094383e+10 # CA1-CA45 type=native eps=0.059750 sigma=8.680991
pair_coeff 1 87 -3.020365e+05 0.000000e+00 1.272330e+11 # CA1-SC45 type=native eps=0.179250 sigma=9.718406
pair_coeff 1 88 -2.303983e+05 0.000000e+00 1.110531e+11 # CA1-CA46 type=native eps=0.119500 sigma=9.939096
pair_coeff 1 89 -1.819371e+05 0.000000e+00 6.924922e+10 # CA1-SC46 type=native eps=0.119500 sigma=9.555511
pair_coeff 1 90 -1.596577e+06 0.000000e+00 5.332755e+12 # CA1-CA47 type=native eps=0.119500 sigma=13.723513
pair_coeff 1 91 -2.268119e+06 0.000000e+00 1.076226e+13 # CA1-SC47 type=native eps=0.119500 sigma=14.550502
pair_coeff 1 92 -3.539787e+06 0.000000e+00 1.310679e+13 # CA1-CA48 type=native eps=0.239000 sigma=13.961268
pair_coeff 1 93 -6.410722e+05 0.000000e+00 8.597774e+11 # CA1-CA49 type=native eps=0.119500 sigma=11.787404
pair_coeff 1 94 -8.108391e+05 0.000000e+00 1.375440e+12 # CA1-SC49 type=native eps=0.119500 sigma=12.258090
pair_coeff 1 95 -2.060193e+05 0.000000e+00 1.331923e+11 # CA1-CA50 type=native eps=0.079667 sigma=10.437589
pair_coeff 1 96 -3.279418e+05 0.000000e+00 1.687435e+11 # CA1-SC50 type=native eps=0.159333 sigma=10.047932
pair_coeff 1 97 -3.718764e+05 0.000000e+00 4.339708e+11 # CA1-CA51 type=native eps=0.079667 sigma=11.517246
pair_coeff 1 98 -2.069244e+06 0.000000e+00 6.718258e+12 # CA1-SC51 type=native eps=0.159333 sigma=13.658799
pair_coeff 1 99 -3.271579e+05 0.000000e+00 3.358754e+11 # CA1-CA52 type=native eps=0.079667 sigma=11.273925
pair_coeff 1 100 -1.220047e+05 0.000000e+00 2.335537e+10 # CA1-SC52 type=native eps=0.159333 sigma=8.521316
pair_coeff 1 101 -1.820267e+06 0.000000e+00 8.664680e+12 # CA1-CA53 type=native eps=0.095600 sigma=14.558207
pair_coeff 1 102 -3.874571e+06 0.000000e+00 2.617207e+13 # CA1-SC53 type=native eps=0.143400 sigma=15.432658
pair_coeff 1 103 -2.518649e+06 0.000000e+00 2.654224e+13 # CA1-CA54 type=native eps=0.059750 sigma=16.620087
pair_coeff 1 104 -4.083930e+06 0.000000e+00 2.326149e+13 # CA1-SC54 type=native eps=0.179250 sigma=15.000240
pair_coeff 1 105 -1.599619e+07 0.000000e+00 5.353099e+14 # CA1-CA55 type=native eps=0.119500 sigma=20.149756
pair_coeff 1 106 -1.631150e+07 0.000000e+00 5.566213e+14 # CA1-SC55 type=native eps=0.119500 sigma=20.215415
pair_coeff 1 107 -1.661824e+07 0.000000e+00 1.444382e+15 # CA1-CA56 type=native eps=0.047800 sigma=23.624059
pair_coeff 1 108 -8.068396e+07 0.000000e+00 8.511901e+15 # CA1-SC56 type=native eps=0.191200 sigma=24.399348
pair_coeff 1 109 -6.075288e+07 0.000000e+00 9.651969e+15 # CA1-CA57 type=native eps=0.095600 sigma=26.122406
pair_coeff 1 110 -7.091966e+07 0.000000e+00 8.768477e+15 # CA1-SC57 type=native eps=0.143400 sigma=25.053280
pair_coeff 1 111 -3.380712e+08 0.000000e+00 1.195524e+17 # CA1-CA58 type=native eps=0.239000 sigma=29.849017
pair_coeff 1 112 -2.007225e+08 0.000000e+00 1.264316e+17 # CA1-CA59 type=native eps=0.079667 sigma=32.863584
pair_coeff 1 113 -6.114262e+08 0.000000e+00 5.865722e+17 # CA1-SC59 type=native eps=0.159333 sigma=35.250713
pair_coeff 1 114 -3.594491e+08 0.000000e+00 3.378756e+17 # CA1-CA60 type=native eps=0.095600 sigma=35.131086
pair_coeff 1 115 -4.753048e+08 0.000000e+00 3.938541e+17 # CA1-SC60 type=native eps=0.143400 sigma=34.400560
pair_coeff 1 116 -9.885996e+08 0.000000e+00 1.703851e+18 # CA1-CA61 type=native eps=0.143400 sigma=38.866331
pair_coeff 1 117 -7.524414e+08 0.000000e+00 1.480565e+18 # CA1-SC61 type=native eps=0.095600 sigma=39.734169
pair_coeff 1 118 -8.145312e+08 0.000000e+00 1.387994e+18 # CA1-CA62 type=native eps=0.119500 sigma=38.792845
pair_coeff 1 119 -6.298130e+08 0.000000e+00 8.298419e+17 # CA1-SC62 type=native eps=0.119500 sigma=37.165127
pair_coeff 1 120 0.000000e+00 0.000000e+00 4.009755e+04 # CA1-CA63 type=non-native eps=0.002390 sigma=4.000000
pair_coeff 1 121 0.000000e+00 0.000000e+00 2.286802e+04 # CA1-SC63 type=non-native eps=0.002390 sigma=3.817121
pair_coeff 1 122 0.000000e+00 0.000000e+00 4.009755e+04 # CA1-CA64 type=non-native eps=0.002390 sigma=4.000000
pair_coeff 1 123 0.000000e+00 0.000000e+00 6.317440e+04 # CA1-SC64 type=non-native eps=0.002390 sigma=4.154435
pair_coeff 1 124 0.000000e+00 0.000000e+00 4.009755e+04 # CA1-CA65 type=non-native eps=0.002390 sigma=4.000000
pair_coeff 1 125 0.000000e+00 0.000000e+00 2.286802e+04 # CA1-SC65 type=non-native eps=0.002390 sigma=3.817121
pair_coeff 1 126 0.000000e+00 0.000000e+00 4.009755e+04 # CA1-CA66 type=non-native eps=0.002390 sigma=4.000000
pair_coeff 1 127 0.000000e+00 0.000000e+00 9.272377e+04 # CA1-SC66 type=non-native eps=0.002390 sigma=4.289428
pair_coeff 1 128 0.000000e+00 0.000000e+00 4.009755e+04 # CA1-CA67 type=non-native eps=0.002390 sigma=4.000000
pair_coeff 1 129 0.000000e+00 0.000000e+00 4.009755e+04 # CA1-SC67 type=non-native eps=0.002390 sigma=4.000000
pair_coeff 1 130 0.000000e+00 0.000000e+00 4.009755e+04 # CA1-CA68 type=non-native eps=0.002390 sigma=4.000000
pair_coeff 1 131 0.000000e+00 0.000000e+00 4.009755e+04 # CA1-SC68 type=non-native eps=0.002390 sigma=4.000000
pair_coeff 1 132 0.000000e+00 0.000000e+00 4.009755e+04 # CA1-CA69 type=non-native eps=0.002390 sigma=4.000000
pair_coeff 1 133 0.000000e+00 0.000000e+00 4.009755e+04 # CA1-SC69 type=non-native eps=0.002390 sigma=4.000000
pair_coeff 1 134 0.000000e+00 0.000000e+00 4.009755e+04 # CA1-CA70 type=non-native eps=0.002390 sigma=4.000000
pair_coeff 1 135 0.000000e+00 0.000000e+00 1.085818e+04 # CA1-SC70 type=non-native eps=0.002390 sigma=3.587401
pair_coeff 1 136 0.000000e+00 0.000000e+00 4.009755e+04 # CA1-CA71 type=non-native eps=0.002390 sigma=4.000000
pair_coeff 1 137 0.000000e+00 0.000000e+00 2.286802e+04 # CA1-SC71 type=non-native eps=0.002390 sigma=3.817121
pair_coeff 1 138 0.000000e+00 0.000000e+00 4.009755e+04 # CA1-CA72 type=non-native eps=0.002390 sigma=4.000000
pair_coeff 1 139 -4.710505e+08 0.000000e+00 2.321010e+17 # CA1-SC72 type=native eps=0.239000 sigma=31.545682
pair_coeff 1 140 -2.060873e+08 0.000000e+00 2.665605e+17 # CA1-CA73 type=native eps=0.039833 sigma=37.050644
pair_coeff 1 141 -1.253748e+09 0.000000e+00 1.973075e+18 # CA1-SC73 type=native eps=0.199167 sigma=38.281938
pair_coeff 1 142 -1.562129e+09 0.000000e+00 2.552560e+18 # CA1-CA74 type=native eps=0.239000 sigma=38.522533
pair_coeff 1 143 0.000000e+00 0.000000e+00 4.009755e+04 # CA1-SC74 type=non-native eps=0.002390 sigma=4.000000
pair_coeff 1 144 -1.833840e+09 0.000000e+00 3.517750e+18 # CA1-CA75 type=native eps=0.239000 sigma=39.566010
pair_coeff 1 145 0.000000e+00 0.000000e+00 6.317440e+04 # CA1-SC75 type=non-native eps=0.002390 sigma=4.154435
pair_coeff 1 146 -1.163610e+09 0.000000e+00 1.416306e+18 # CA1-CA76 type=native eps=0.239000 sigma=36.677237
pair_coeff 1 147 0.000000e+00 0.000000e+00 2.286802e+04 # CA1-SC76 type=non-native eps=0.002390 sigma=3.817121
pair_coeff 1 148 0.000000e+00 0.000000e+00 4.009755e+04 # CA1-CA77 type=non-native eps=0.002390 sigma=4.000000
pair_coeff 1 149 0.000000e+00 0.000000e+00 9.272377e+04 # CA1-SC77 type=non-native eps=0.002390 sigma=4.289428
pair_coeff 1 150 0.000000e+00 0.000000e+00 4.009755e+04 # CA1-CA78 type=non-native eps=0.002390 sigma=4.000000
pair_coeff 1 151 0.000000e+00 0.000000e+00 4.009755e+04 # CA1-SC78 type=non-native eps=0.002390 sigma=4.000000
pair_coeff 1 152 0.000000e+00 0.000000e+00 4.009755e+04 # CA1-CA79 type=non-native eps=0.002390 sigma=4.000000
pair_coeff 1 153 0.000000e+00 0.000000e+00 6.317440e+04 # CA1-SC79 type=non-native eps=0.002390 sigma=4.154435
pair_coeff 1 154 -2.970911e+08 0.000000e+00 1.846508e+17 # CA1-CA80 type=native eps=0.119500 sigma=32.790543
pair_coeff 1 155 -4.249209e+08 0.000000e+00 3.777359e+17 # CA1-SC80 type=native eps=0.119500 sigma=34.805806
pair_coeff 1 156 -7.770944e+07 0.000000e+00 2.526677e+16 # CA1-CA81 type=native eps=0.059750 sigma=29.434115
pair_coeff 1 157 -1.885618e+08 0.000000e+00 4.958934e+16 # CA1-SC81 type=native eps=0.179250 sigma=28.411496
pair_coeff 1 158 -8.283084e+07 0.000000e+00 1.435345e+16 # CA1-CA82 type=native eps=0.119500 sigma=26.503244
pair_coeff 1 159 -8.391926e+07 0.000000e+00 1.473314e+16 # CA1-SC82 type=native eps=0.119500 sigma=26.560971
pair_coeff 1 160 -3.502712e+07 0.000000e+00 2.566735e+15 # CA1-CA83 type=native eps=0.119500 sigma=22.961544
pair_coeff 1 161 -1.634791e+07 0.000000e+00 5.591092e+14 # CA1-SC83 type=native eps=0.119500 sigma=20.222929
pair_coeff 1 162 -1.209165e+07 0.000000e+00 4.588116e+14 # CA1-CA84 type=native eps=0.079667 sigma=20.576104
pair_coeff 1 163 -4.060377e+07 0.000000e+00 2.586819e+15 # CA1-SC84 type=native eps=0.159333 sigma=22.432187
pair_coeff 1 164 -7.386779e+06 0.000000e+00 8.561376e+13 # CA1-CA85 type=native eps=0.159333 sigma=16.885726
pair_coeff 1 165 -2.959598e+06 0.000000e+00 2.748709e+13 # CA1-SC85 type=native eps=0.079667 sigma=16.273751
pair_coeff 1 166 -2.332320e+06 0.000000e+00 2.276032e+13 # CA1-CA86 type=native eps=0.059750 sigma=16.408543
pair_coeff 1 167 -1.969146e+07 0.000000e+00 5.408001e+14 # CA1-SC86 type=native eps=0.179250 sigma=19.496866
pair_coeff 1 168 -9.467417e+05 0.000000e+00 3.281506e+12 # CA1-CA87 type=native eps=0.068286 sigma=13.808461
pair_coeff 1 169 -1.146809e+06 0.000000e+00 1.925982e+12 # CA1-SC87 type=native eps=0.170714 sigma=12.237664
pair_coeff 1 170 -1.428089e+06 0.000000e+00 8.533214e+12 # CA1-CA88 type=native eps=0.059750 sigma=15.120445
pair_coeff 1 171 -6.583396e+06 0.000000e+00 6.044784e+13 # CA1-SC88 type=native eps=0.179250 sigma=16.242772
pair_coeff 1 172 -1.818698e+06 0.000000e+00 8.649749e+12 # CA1-CA89 type=native eps=0.095600 sigma=14.556115
pair_coeff 1 173 -3.276517e+06 0.000000e+00 1.871612e+13 # CA1-SC89 type=native eps=0.143400 sigma=15.007403
pair_coeff 1 174 -4.403050e+06 0.000000e+00 4.055827e+13 # CA1-CA90 type=native eps=0.119500 sigma=16.251469
pair_coeff 1 175 -4.384141e+06 0.000000e+00 4.021065e+13 # CA1-SC90 type=native eps=0.119500 sigma=16.239816
pair_coeff 1 176 -8.936376e+06 0.000000e+00 1.392239e+14 # CA1-CA91 type=native eps=0.143400 sigma=17.739051
pair_coeff 1 177 -6.550754e+06 0.000000e+00 1.122186e+14 # CA1-SC91 type=native eps=0.095600 sigma=18.021900
pair_coeff 1 178 0.000000e+00 0.000000e+00 4.009755e+04 # CA1-CA92 type=non-native eps=0.002390 sigma=4.000000
pair_coeff 1 179 0.000000e+00 0.000000e+00 2.286802e+04 # CA1-SC92 type=non-native eps=0.002390 sigma=3.817121
pair_coeff 1 180 0.000000e+00 0.000000e+00 4.009755e+04 # CA1-CA93 type=non-native eps=0.002390 sigma=4.000000
pair_coeff 1 181 0.000000e+00 0.000000e+00 2.880942e+05 # CA1-SC93 type=non-native eps=0.002390 sigma=4.714418
pair_coeff 1 182 0.000000e+00 0.000000e+00 4.009755e+04 # CA1-CA94 type=non-native eps=0.002390 sigma=4.000000
pair_coeff 1 183 0.000000e+00 0.000000e+00 6.317440e+04 # CA1-SC94 type=non-native eps=0.002390 sigma=4.154435
pair_coeff 1 184 0.000000e+00 0.000000e+00 4.009755e+04 # CA1-CA95 type=non-native eps=0.002390 sigma=4.000000
pair_coeff 1 185 0.000000e+00 0.000000e+00 4.009755e+04 # CA1-CA96 type=non-native eps=0.002390 sigma=4.000000
pair_coeff 1 186 0.000000e+00 0.000000e+00 2.286802e+04 # CA1-SC96 type=non-native eps=0.002390 sigma=3.817121
pair_coeff 1 187 0.000000e+00 0.000000e+00 4.009755e+04 # CA1-CA97 type=non-native eps=0.002390 sigma=4.000000
pair_coeff 1 188 0.000000e+00 0.000000e+00 4.009755e+04 # CA1-SC97 type=non-native eps=0.002390 sigma=4.000000
pair_coeff 1 189 0.000000e+00 0.000000e+00 4.009755e+04 # CA1-CA98 type=non-native eps=0.002390 sigma=4.000000
pair_coeff 1 190 0.000000e+00 0.000000e+00 2.286802e+04 # CA1-SC98 type=non-native eps=0.002390 sigma=3.817121
pair_coeff 1 191 0.000000e+00 0.000000e+00 4.009755e+04 # CA1-CA99 type=non-native eps=0.002390 sigma=4.000000
pair_coeff 1 192 0.000000e+00 0.000000e+00 4.009755e+04 # CA1-SC99 type=non-native eps=0.002390 sigma=4.000000
pair_coeff 1 193 0.000000e+00 0.000000e+00 4.009755e+04 # CA1-CA100 type=non-native eps=0.002390 sigma=4.000000
pair_coeff 1 194 0.000000e+00 0.000000e+00 1.085818e+04 # CA1-SC100 type=non-native eps=0.002390 sigma=3.587401
pair_coeff 1 195 0.000000e+00 0.000000e+00 4.009755e+04 # CA1-CA101 type=non-native eps=0.002390 sigma=4.000000
pair_coeff 1 196 0.000000e+00 0.000000e+00 6.317440e+04 # CA1-SC101 type=non-native eps=0.002390 sigma=4.154435
pair_coeff 1 197 0.000000e+00 0.000000e+00 4.009755e+04 # CA1-CA102 type=non-native eps=0.002390 sigma=4.000000
pair_coeff 1 198 0.000000e+00 0.000000e+00 1.085818e+04 # CA1-SC102 type=non-native eps=0.002390 sigma=3.587401
pair_coeff 1 199 0.000000e+00 0.000000e+00 4.009755e+04 # CA1-CA103 type=non-native eps=0.002390 sigma=4.000000
pair_coeff 1 200 0.000000e+00 0.000000e+00 2.286802e+04 # CA1-SC103 type=non-native eps=0.002390 sigma=3.817121
pair_coeff 1 201 0.000000e+00 0.000000e+00 4.009755e+04 # CA1-CA104 type=non-native eps=0.002390 sigma=4.000000
pair_coeff 1 202 0.000000e+00 0.000000e+00 1.085818e+04 # CA1-SC104 type=non-native eps=0.002390 sigma=3.587401
pair_coeff 1 203 0.000000e+00 0.000000e+00 4.009755e+04 # CA1-CA105 type=non-native eps=0.002390 sigma=4.000000
pair_coeff 1 204 0.000000e+00 0.000000e+00 6.317440e+04 # CA1-SC105 type=non-native eps=0.002390 sigma=4.154435
pair_coeff 1 205 0.000000e+00 0.000000e+00 4.009755e+04 # CA1-CA106 type=non-native eps=0.002390 sigma=4.000000
pair_coeff 1 206 0.000000e+00 0.000000e+00 4.009755e+04 # CA1-SC106 type=non-native eps=0.002390 sigma=4.000000
pair_coeff 1 207 0.000000e+00 0.000000e+00 4.009755e+04 # CA1-CA107 type=non-native eps=0.002390 sigma=4.000000
pair_coeff 1 208 0.000000e+00 0.000000e+00 1.085818e+04 # CA1-SC107 type=non-native eps=0.002390 sigma=3.587401
pair_coeff 2 2 0.000000e+00 0.000000e+00 4.009755e+04 # CA2-CA2 type=non-native eps=0.002390 sigma=4.000000
pair_coeff 2 3 0.000000e+00 0.000000e+00 2.286802e+04 # CA2-SC2 type=non-native eps=0.002390 sigma=3.817121
pair_coeff 2 4 0.000000e+00 0.000000e+00 4.009755e+04 # CA2-CA3 type=non-native eps=0.002390 sigma=4.000000
pair_coeff 2 5 0.000000e+00 0.000000e+00 4.009755e+04 # CA2-SC3 type=non-native eps=0.002390 sigma=4.000000
pair_coeff 2 6 0.000000e+00 0.000000e+00 4.009755e+04 # CA2-CA4 type=non-native eps=0.002390 sigma=4.000000
pair_coeff 2 7 0.000000e+00 0.000000e+00 4.009755e+04 # CA2-SC4 type=non-native eps=0.002390 sigma=4.000000
pair_coeff 2 8 0.000000e+00 0.000000e+00 4.009755e+04 # CA2-CA5 type=non-native eps=0.002390 sigma=4.000000
pair_coeff 2 9 0.000000e+00 0.000000e+00 3.442571e+03 # CA2-SC5 type=non-native eps=0.002390 sigma=3.259921
pair_coeff 2 10 0.000000e+00 0.000000e+00 4.009755e+04 # CA2-CA6 type=non-native eps=0.002390 sigma=4.000000
pair_coeff 2 11 0.000000e+00 0.000000e+00 1.085818e+04 # CA2-SC6 type=non-native eps=0.002390 sigma=3.587401
pair_coeff 2 12 0.000000e+00 0.000000e+00 4.009755e+04 # CA2-CA7 type=non-native eps=0.002390 sigma=4.000000
pair_coeff 2 13 0.000000e+00 0.000000e+00 2.286802e+04 # CA2-SC7 type=non-native eps=0.002390 sigma=3.817121
pair_coeff 2 14 0.000000e+00 0.000000e+00 4.009755e+04 # CA2-CA8 type=non-native eps=0.002390 sigma=4.000000
pair_coeff 2 15 0.000000e+00 0.000000e+00 6.317440e+04 # CA2-SC8 type=non-native eps=0.002390 sigma=4.154435
pair_coeff 2 16 0.000000e+00 0.000000e+00 4.009755e+04 # CA2-CA9 type=non-native eps=0.002390 sigma=4.000000
pair_coeff 2 17 0.000000e+00 0.000000e+00 6.317440e+04 # CA2-SC9 type=non-native eps=0.002390 sigma=4.154435
pair_coeff 2 18 0.000000e+00 0.000000e+00 4.009755e+04 # CA2-CA10 type=non-native eps=0.002390 sigma=4.000000
pair_coeff 2 19 0.000000e+00 0.000000e+00 6.317440e+04 # CA2-SC10 type=non-native eps=0.002390 sigma=4.154435
pair_coeff 2 20 0.000000e+00 0.000000e+00 4.009755e+04 # CA2-CA11 type=non-native eps=0.002390 sigma=4.000000
pair_coeff 2 21 0.000000e+00 0.000000e+00 4.009755e+04 # CA2-CA12 type=non-native eps=0.002390 sigma=4.000000
pair_coeff 2 22 0.000000e+00 0.000000e+00 2.286802e+04 # CA2-SC12 type=non-native eps=0.002390 sigma=3.817121
pair_coeff 2 23 0.000000e+00 0.000000e+00 4.009755e+04 # CA2-CA13 type=non-native eps=0.002390 sigma=4.000000
pair_coeff 2 24 0.000000e+00 0.000000e+00 1.293687e+05 # CA2-SC13 type=non-native eps=0.002390 sigma=4.410142
pair_coeff 2 25 0.000000e+00 0.000000e+00 4.009755e+04 # CA2-CA14 type=non-native eps=0.002390 sigma=4.000000
pair_coeff 2 26 0.000000e+00 0.000000e+00 1.293687e+05 # CA2-SC14 type=non-native eps=0.002390 sigma=4.410142
pair_coeff 2 27 0.000000e+00 0.000000e+00 4.009755e+04 # CA2-CA15 type=non-native eps=0.002390 sigma=4.000000
pair_coeff 2 28 0.000000e+00 0.000000e+00 3.442571e+03 # CA2-SC15 type=non-native eps=0.002390 sigma=3.259921
pair_coeff 2 29 0.000000e+00 0.000000e+00 4.009755e+04 # CA2-CA16 type=non-native eps=0.002390 sigma=4.000000
pair_coeff 2 30 0.000000e+00 0.000000e+00 4.009755e+04 # CA2-SC16 type=non-native eps=0.002390 sigma=4.000000
pair_coeff 2 31 0.000000e+00 0.000000e+00 4.009755e+04 # CA2-CA17 type=non-native eps=0.002390 sigma=4.000000
pair_coeff 2 32 0.000000e+00 0.000000e+00 4.009755e+04 # CA2-SC17 type=non-native eps=0.002390 sigma=4.000000
pair_coeff 2 33 0.000000e+00 0.000000e+00 4.009755e+04 # CA2-CA18 type=non-native eps=0.002390 sigma=4.000000
pair_coeff 2 34 0.000000e+00 0.000000e+00 1.293687e+05 # CA2-SC18 type=non-native eps=0.002390 sigma=4.410142
pair_coeff 2 35 0.000000e+00 0.000000e+00 4.009755e+04 # CA2-CA19 type=non-native eps=0.002390 sigma=4.000000
pair_coeff 2 36 0.000000e+00 0.000000e+00 3.442571e+03 # CA2-SC19 type=non-native eps=0.002390 sigma=3.259921
pair_coeff 2 37 0.000000e+00 0.000000e+00 4.009755e+04 # CA2-CA20 type=non-native eps=0.002390 sigma=4.000000
pair_coeff 2 38 0.000000e+00 0.000000e+00 2.286802e+04 # CA2-SC20 type=non-native eps=0.002390 sigma=3.817121
pair_coeff 2 39 0.000000e+00 0.000000e+00 4.009755e+04 # CA2-CA21 type=non-native eps=0.002390 sigma=4.000000
pair_coeff 2 40 0.000000e+00 0.000000e+00 4.009755e+04 # CA2-CA22 type=non-native eps=0.002390 sigma=4.000000
pair_coeff 2 41 0.000000e+00 0.000000e+00 6.317440e+04 # CA2-SC22 type=non-native eps=0.002390 sigma=4.154435
pair_coeff 2 42 0.000000e+00 0.000000e+00 4.009755e+04 # CA2-CA23 type=non-native eps=0.002390 sigma=4.000000
pair_coeff 2 43 0.000000e+00 0.000000e+00 1.737309e+05 # CA2-SC23 type=non-native eps=0.002390 sigma=4.519842
pair_coeff 2 44 0.000000e+00 0.000000e+00 4.009755e+04 # CA2-CA24 type=non-native eps=0.002390 sigma=4.000000
pair_coeff 2 45 0.000000e+00 0.000000e+00 4.009755e+04 # CA2-SC24 type=non-native eps=0.002390 sigma=4.000000
pair_coeff 2 46 0.000000e+00 0.000000e+00 4.009755e+04 # CA2-CA25 type=non-native eps=0.002390 sigma=4.000000
pair_coeff 2 47 0.000000e+00 0.000000e+00 6.317440e+04 # CA2-SC25 type=non-native eps=0.002390 sigma=4.154435
pair_coeff 2 48 0.000000e+00 0.000000e+00 4.009755e+04 # CA2-CA26 type=non-native eps=0.002390 sigma=4.000000
pair_coeff 2 49 0.000000e+00 0.000000e+00 3.442571e+03 # CA2-SC26 type=non-native eps=0.002390 sigma=3.259921
pair_coeff 2 50 0.000000e+00 0.000000e+00 4.009755e+04 # CA2-CA27 type=non-native eps=0.002390 sigma=4.000000
pair_coeff 2 51 0.000000e+00 0.000000e+00 1.085818e+04 # CA2-SC27 type=non-native eps=0.002390 sigma=3.587401
pair_coeff 2 52 0.000000e+00 0.000000e+00 4.009755e+04 # CA2-CA28 type=non-native eps=0.002390 sigma=4.000000
pair_coeff 2 53 0.000000e+00 0.000000e+00 4.009755e+04 # CA2-SC28 type=non-native eps=0.002390 sigma=4.000000
pair_coeff 2 54 0.000000e+00 0.000000e+00 4.009755e+04 # CA2-CA29 type=non-native eps=0.002390 sigma=4.000000
pair_coeff 2 55 0.000000e+00 0.000000e+00 4.009755e+04 # CA2-SC29 type=non-native eps=0.002390 sigma=4.000000
pair_coeff 2 56 0.000000e+00 0.000000e+00 4.009755e+04 # CA2-CA30 type=non-native eps=0.002390 sigma=4.000000
pair_coeff 2 57 0.000000e+00 0.000000e+00 4.009755e+04 # CA2-SC30 type=non-native eps=0.002390 sigma=4.000000
pair_coeff 2 58 0.000000e+00 0.000000e+00 4.009755e+04 # CA2-CA31 type=non-native eps=0.002390 sigma=4.000000
pair_coeff 2 59 0.000000e+00 0.000000e+00 1.737309e+05 # CA2-SC31 type=non-native eps=0.002390 sigma=4.519842
pair_coeff 2 60 0.000000e+00 0.000000e+00 4.009755e+04 # CA2-CA32 type=non-native eps=0.002390 sigma=4.000000
pair_coeff 2 61 0.000000e+00 0.000000e+00 9.272377e+04 # CA2-SC32 type=non-native eps=0.002390 sigma=4.289428
pair_coeff 2 62 0.000000e+00 0.000000e+00 4.009755e+04 # CA2-CA33 type=non-native eps=0.002390 sigma=4.000000
pair_coeff 2 63 0.000000e+00 0.000000e+00 1.085818e+04 # CA2-SC33 type=non-native eps=0.002390 sigma=3.587401
pair_coeff 2 64 0.000000e+00 0.000000e+00 4.009755e+04 # CA2-CA34 type=non-native eps=0.002390 sigma=4.000000
pair_coeff 2 65 0.000000e+00 0.000000e+00 1.293687e+05 # CA2-SC34 type=non-native eps=0.002390 sigma=4.410142
pair_coeff 2 66 0.000000e+00 0.000000e+00 4.009755e+04 # CA2-CA35 type=non-native eps=0.002390 sigma=4.000000
pair_coeff 2 67 0.000000e+00 0.000000e+00 3.442571e+03 # CA2-SC35 type=non-native eps=0.002390 sigma=3.259921
pair_coeff 2 68 0.000000e+00 0.000000e+00 4.009755e+04 # CA2-CA36 type=non-native eps=0.002390 sigma=4.000000
pair_coeff 2 69 0.000000e+00 0.000000e+00 4.009755e+04 # CA2-SC36 type=non-native eps=0.002390 sigma=4.000000
pair_coeff 2 70 0.000000e+00 0.000000e+00 4.009755e+04 # CA2-CA37 type=non-native eps=0.002390 sigma=4.000000
pair_coeff 2 71 0.000000e+00 0.000000e+00 6.317440e+04 # CA2-SC37 type=non-native eps=0.002390 sigma=4.154435
pair_coeff 2 72 0.000000e+00 0.000000e+00 4.009755e+04 # CA2-CA38 type=non-native eps=0.002390 sigma=4.000000
pair_coeff 2 73 0.000000e+00 0.000000e+00 2.286802e+04 # CA2-SC38 type=non-native eps=0.002390 sigma=3.817121
pair_coeff 2 74 0.000000e+00 0.000000e+00 4.009755e+04 # CA2-CA39 type=non-native eps=0.002390 sigma=4.000000
pair_coeff 2 75 0.000000e+00 0.000000e+00 2.286802e+04 # CA2-SC39 type=non-native eps=0.002390 sigma=3.817121
pair_coeff 2 76 0.000000e+00 0.000000e+00 4.009755e+04 # CA2-CA40 type=non-native eps=0.002390 sigma=4.000000
pair_coeff 2 77 0.000000e+00 0.000000e+00 1.293687e+05 # CA2-SC40 type=non-native eps=0.002390 sigma=4.410142
pair_coeff 2 78 0.000000e+00 0.000000e+00 4.009755e+04 # CA2-CA41 type=non-native eps=0.002390 sigma=4.000000
pair_coeff 2 79 0.000000e+00 0.000000e+00 3.442571e+03 # CA2-SC41 type=non-native eps=0.002390 sigma=3.259921
pair_coeff 2 80 0.000000e+00 0.000000e+00 4.009755e+04 # CA2-CA42 type=non-native eps=0.002390 sigma=4.000000
pair_coeff 2 81 0.000000e+00 0.000000e+00 1.293687e+05 # CA2-SC42 type=non-native eps=0.002390 sigma=4.410142
pair_coeff 2 82 0.000000e+00 0.000000e+00 4.009755e+04 # CA2-CA43 type=non-native eps=0.002390 sigma=4.000000
pair_coeff 2 83 0.000000e+00 0.000000e+00 6.317440e+04 # CA2-SC43 type=non-native eps=0.002390 sigma=4.154435
pair_coeff 2 84 0.000000e+00 0.000000e+00 4.009755e+04 # CA2-CA44 type=non-native eps=0.002390 sigma=4.000000
pair_coeff 2 85 0.000000e+00 0.000000e+00 6.317440e+04 # CA2-SC44 type=non-native eps=0.002390 sigma=4.154435
pair_coeff 2 86 0.000000e+00 0.000000e+00 4.009755e+04 # CA2-CA45 type=non-native eps=0.002390 sigma=4.000000
pair_coeff 2 87 0.000000e+00 0.000000e+00 4.009755e+04 # CA2-SC45 type=non-native eps=0.002390 sigma=4.000000
pair_coeff 2 88 0.000000e+00 0.000000e+00 4.009755e+04 # CA2-CA46 type=non-native eps=0.002390 sigma=4.000000
pair_coeff 2 89 0.000000e+00 0.000000e+00 2.286802e+04 # CA2-SC46 type=non-native eps=0.002390 sigma=3.817121
pair_coeff 2 90 0.000000e+00 0.000000e+00 4.009755e+04 # CA2-CA47 type=non-native eps=0.002390 sigma=4.000000
pair_coeff 2 91 0.000000e+00 0.000000e+00 3.442571e+03 # CA2-SC47 type=non-native eps=0.002390 sigma=3.259921
pair_coeff 2 92 0.000000e+00 0.000000e+00 4.009755e+04 # CA2-CA48 type=non-native eps=0.002390 sigma=4.000000
pair_coeff 2 93 0.000000e+00 0.000000e+00 4.009755e+04 # CA2-CA49 type=non-native eps=0.002390 sigma=4.000000
pair_coeff 2 94 0.000000e+00 0.000000e+00 2.286802e+04 # CA2-SC49 type=non-native eps=0.002390 sigma=3.817121
pair_coeff 2 95 0.000000e+00 0.000000e+00 4.009755e+04 # CA2-CA50 type=non-native eps=0.002390 sigma=4.000000
pair_coeff 2 96 0.000000e+00 0.000000e+00 4.009755e+04 # CA2-SC50 type=non-native eps=0.002390 sigma=4.000000
pair_coeff 2 97 0.000000e+00 0.000000e+00 4.009755e+04 # CA2-CA51 type=non-native eps=0.002390 sigma=4.000000
pair_coeff 2 98 0.000000e+00 0.000000e+00 1.737309e+05 # CA2-SC51 type=non-native eps=0.002390 sigma=4.519842
pair_coeff 2 99 0.000000e+00 0.000000e+00 4.009755e+04 # CA2-CA52 type=non-native eps=0.002390 sigma=4.000000
pair_coeff 2 100 0.000000e+00 0.000000e+00 1.293687e+05 # CA2-SC52 type=non-native eps=0.002390 sigma=4.410142
pair_coeff 2 101 0.000000e+00 0.000000e+00 4.009755e+04 # CA2-CA53 type=non-native eps=0.002390 sigma=4.000000
pair_coeff 2 102 0.000000e+00 0.000000e+00 4.009755e+04 # CA2-SC53 type=non-native eps=0.002390 sigma=4.000000
pair_coeff 2 103 0.000000e+00 0.000000e+00 4.009755e+04 # CA2-CA54 type=non-native eps=0.002390 sigma=4.000000
pair_coeff 2 104 0.000000e+00 0.000000e+00 4.009755e+04 # CA2-SC54 type=non-native eps=0.002390 sigma=4.000000
pair_coeff 2 105 0.000000e+00 0.000000e+00 4.009755e+04 # CA2-CA55 type=non-native eps=0.002390 sigma=4.000000
pair_coeff 2 106 0.000000e+00 0.000000e+00 2.286802e+04 # CA2-SC55 type=non-native eps=0.002390 sigma=3.817121
pair_coeff 2 107 0.000000e+00 0.000000e+00 4.009755e+04 # CA2-CA56 type=non-native eps=0.002390 sigma=4.000000
pair_coeff 2 108 0.000000e+00 0.000000e+00 6.317440e+04 # CA2-SC56 type=non-native eps=0.002390 sigma=4.154435
pair_coeff 2 109 0.000000e+00 0.000000e+00 4.009755e+04 # CA2-CA57 type=non-native eps=0.002390 sigma=4.000000
pair_coeff 2 110 0.000000e+00 0.000000e+00 4.009755e+04 # CA2-SC57 type=non-native eps=0.002390 sigma=4.000000
pair_coeff 2 111 0.000000e+00 0.000000e+00 4.009755e+04 # CA2-CA58 type=non-native eps=0.002390 sigma=4.000000
pair_coeff 2 112 0.000000e+00 0.000000e+00 4.009755e+04 # CA2-CA59 type=non-native eps=0.002390 sigma=4.000000
pair_coeff 2 113 0.000000e+00 0.000000e+00 1.293687e+05 # CA2-SC59 type=non-native eps=0.002390 sigma=4.410142
pair_coeff 2 114 0.000000e+00 0.000000e+00 4.009755e+04 # CA2-CA60 type=non-native eps=0.002390 sigma=4.000000
pair_coeff 2 115 0.000000e+00 0.000000e+00 2.286802e+04 # CA2-SC60 type=non-native eps=0.002390 sigma=3.817121
pair_coeff 2 116 0.000000e+00 0.000000e+00 4.009755e+04 # CA2-CA61 type=non-native eps=0.002390 sigma=4.000000
pair_coeff 2 117 0.000000e+00 0.000000e+00 2.286802e+04 # CA2-SC61 type=non-native eps=0.002390 sigma=3.817121
pair_coeff 2 118 0.000000e+00 0.000000e+00 4.009755e+04 # CA2-CA62 type=non-native eps=0.002390 sigma=4.000000
pair_coeff 2 119 0.000000e+00 0.000000e+00 1.085818e+04 # CA2-SC62 type=non-native eps=0.002390 sigma=3.587401
pair_coeff 2 120 0.000000e+00 0.000000e+00 4.009755e+04 # CA2-CA63 type=non-native eps=0.002390 sigma=4.000000
pair_coeff 2 121 0.000000e+00 0.000000e+00 2.286802e+04 # CA2-SC63 type=non-native eps=0.002390 sigma=3.817121
pair_coeff 2 122 0.000000e+00 0.000000e+00 4.009755e+04 # CA2-CA64 type=non-native eps=0.002390 sigma=4.000000
pair_coeff 2 123 0.000000e+00 0.000000e+00 6.317440e+04 # CA2-SC64 type=non-native eps=0.002390 sigma=4.154435
pair_coeff 2 124 0.000000e+00 0.000000e+00 4.009755e+04 # CA2-CA65 type=non-native eps=0.002390 sigma=4.000000
pair_coeff 2 125 0.000000e+00 0.000000e+00 2.286802e+04 # CA2-SC65 type=non-native eps=0.002390 sigma=3.817121
pair_coeff 2 126 0.000000e+00 0.000000e+00 4.009755e+04 # CA2-CA66 type=non-native eps=0.002390 sigma=4.000000
pair_coeff 2 127 0.000000e+00 0.000000e+00 9.272377e+04 # CA2-SC66 type=non-native eps=0.002390 sigma=4.289428
pair_coeff 2 128 0.000000e+00 0.000000e+00 4.009755e+04 # CA2-CA67 type=non-native eps=0.002390 sigma=4.000000
pair_coeff 2 129 0.000000e+00 0.000000e+00 4.009755e+04 # CA2-SC67 type=non-native eps=0.002390 sigma=4.000000
pair_coeff 2 130 0.000000e+00 0.000000e+00 4.009755e+04 # CA2-CA68 type=non-native eps=0.002390 sigma=4.000000
pair_coeff 2 131 0.000000e+00 0.000000e+00 4.009755e+04 # CA2-SC68 type=non-native eps=0.002390 sigma=4.000000
pair_coeff 2 132 0.000000e+00 0.000000e+00 4.009755e+04 # CA2-CA69 type=non-native eps=0.002390 sigma=4.000000
pair_coeff 2 133 0.000000e+00 0.000000e+00 4.009755e+04 # CA2-SC69 type=non-native eps=0.002390 sigma=4.000000
pair_coeff 2 134 0.000000e+00 0.000000e+00 4.009755e+04 # CA2-CA70 type=non-native eps=0.002390 sigma=4.000000
pair_coeff 2 135 0.000000e+00 0.000000e+00 1.085818e+04 # CA2-SC70 type=non-native eps=0.002390 sigma=3.587401
pair_coeff 2 136 0.000000e+00 0.000000e+00 4.009755e+04 # CA2-CA71 type=non-native eps=0.002390 sigma=4.000000
pair_coeff 2 137 0.000000e+00 0.000000e+00 2.286802e+04 # CA2-SC71 type=non-native eps=0.002390 sigma=3.817121
pair_coeff 2 138 0.000000e+00 0.000000e+00 4.009755e+04 # CA2-CA72 type=non-native eps=0.002390 sigma=4.000000
pair_coeff 2 139 0.000000e+00 0.000000e+00 1.293687e+05 # CA2-SC72 type=non-native eps=0.002390 sigma=4.410142
pair_coeff 2 140 0.000000e+00 0.000000e+00 4.009755e+04 # CA2-CA73 type=non-native eps=0.002390 sigma=4.000000
pair_coeff 2 141 0.000000e+00 0.000000e+00 9.272377e+04 # CA2-SC73 type=non-native eps=0.002390 sigma=4.289428
pair_coeff 2 142 0.000000e+00 0.000000e+00 4.009755e+04 # CA2-CA74 type=non-native eps=0.002390 sigma=4.000000
pair_coeff 2 143 0.000000e+00 0.000000e+00 4.009755e+04 # CA2-SC74 type=non-native eps=0.002390 sigma=4.000000
pair_coeff 2 144 0.000000e+00 0.000000e+00 4.009755e+04 # CA2-CA75 type=non-native eps=0.002390 sigma=4.000000
pair_coeff 2 145 0.000000e+00 0.000000e+00 6.317440e+04 # CA2-SC75 type=non-native eps=0.002390 sigma=4.154435
pair_coeff 2 146 0.000000e+00 0.000000e+00 4.009755e+04 # CA2-CA76 type=non-native eps=0.002390 sigma=4.000000
pair_coeff 2 147 0.000000e+00 0.000000e+00 2.286802e+04 # CA2-SC76 type=non-native eps=0.002390 sigma=3.817121
pair_coeff 2 148 0.000000e+00 0.000000e+00 4.009755e+04 # CA2-CA77 type=non-native eps=0.002390 sigma=4.000000
pair_coeff 2 149 0.000000e+00 0.000000e+00 9.272377e+04 # CA2-SC77 type=non-native eps=0.002390 sigma=4.289428
pair_coeff 2 150 0.000000e+00 0.000000e+00 4.009755e+04 # CA2-CA78 type=non-native eps=0.002390 sigma=4.000000
pair_coeff 2 151 0.000000e+00 0.000000e+00 4.009755e+04 # CA2-SC78 type=non-native eps=0.002390 sigma=4.000000
pair_coeff 2 152 0.000000e+00 0.000000e+00 4.009755e+04 # CA2-CA79 type=non-native eps=0.002390 sigma=4.000000
pair_coeff 2 153 0.000000e+00 0.000000e+00 6.317440e+04 # CA2-SC79 type=non-native eps=0.002390 sigma=4.154435
pair_coeff 2 154 0.000000e+00 0.000000e+00 4.009755e+04 # CA2-CA80 type=non-native eps=0.002390 sigma=4.000000
pair_coeff 2 155 0.000000e+00 0.000000e+00 1.293687e+05 # CA2-SC80 type=non-native eps=0.002390 sigma=4.410142
pair_coeff 2 156 0.000000e+00 0.000000e+00 4.009755e+04 # CA2-CA81 type=non-native eps=0.002390 sigma=4.000000
pair_coeff 2 157 0.000000e+00 0.000000e+00 6.317440e+04 # CA2-SC81 type=non-native eps=0.002390 sigma=4.154435
pair_coeff 2 158 0.000000e+00 0.000000e+00 4.009755e+04 # CA2-CA82 type=non-native eps=0.002390 sigma=4.000000
pair_coeff 2 159 0.000000e+00 0.000000e+00 3.442571e+03 # CA2-SC82 type=non-native eps=0.002390 sigma=3.259921
pair_coeff 2 160 0.000000e+00 0.000000e+00 4.009755e+04 # CA2-CA83 type=non-native eps=0.002390 sigma=4.000000
pair_coeff 2 161 0.000000e+00 0.000000e+00 1.293687e+05 # CA2-SC83 type=non-native eps=0.002390 sigma=4.410142
pair_coeff 2 162 0.000000e+00 0.000000e+00 4.009755e+04 # CA2-CA84 type=non-native eps=0.002390 sigma=4.000000
pair_coeff 2 163 0.000000e+00 0.000000e+00 1.085818e+04 # CA2-SC84 type=non-native eps=0.002390 sigma=3.587401
pair_coeff 2 164 0.000000e+00 0.000000e+00 4.009755e+04 # CA2-CA85 type=non-native eps=0.002390 sigma=4.000000
pair_coeff 2 165 0.000000e+00 0.000000e+00 1.085818e+04 # CA2-SC85 type=non-native eps=0.002390 sigma=3.587401
pair_coeff 2 166 0.000000e+00 0.000000e+00 4.009755e+04 # CA2-CA86 type=non-native eps=0.002390 sigma=4.000000
pair_coeff 2 167 0.000000e+00 0.000000e+00 1.293687e+05 # CA2-SC86 type=non-native eps=0.002390 sigma=4.410142
pair_coeff 2 168 0.000000e+00 0.000000e+00 4.009755e+04 # CA2-CA87 type=non-native eps=0.002390 sigma=4.000000
pair_coeff 2 169 0.000000e+00 0.000000e+00 6.317440e+04 # CA2-SC87 type=non-native eps=0.002390 sigma=4.154435
pair_coeff 2 170 0.000000e+00 0.000000e+00 4.009755e+04 # CA2-CA88 type=non-native eps=0.002390 sigma=4.000000
pair_coeff 2 171 0.000000e+00 0.000000e+00 4.009755e+04 # CA2-SC88 type=non-native eps=0.002390 sigma=4.000000
pair_coeff 2 172 0.000000e+00 0.000000e+00 4.009755e+04 # CA2-CA89 type=non-native eps=0.002390 sigma=4.000000
pair_coeff 2 173 0.000000e+00 0.000000e+00 1.737309e+05 # CA2-SC89 type=non-native eps=0.002390 sigma=4.519842
pair_coeff 2 174 0.000000e+00 0.000000e+00 4.009755e+04 # CA2-CA90 type=non-native eps=0.002390 sigma=4.000000
pair_coeff 2 175 0.000000e+00 0.000000e+00 3.442571e+03 # CA2-SC90 type=non-native eps=0.002390 sigma=3.259921
pair_coeff 2 176 0.000000e+00 0.000000e+00 4.009755e+04 # CA2-CA91 type=non-native eps=0.002390 sigma=4.000000
pair_coeff 2 177 0.000000e+00 0.000000e+00 2.286802e+04 # CA2-SC91 type=non-native eps=0.002390 sigma=3.817121
pair_coeff 2 178 0.000000e+00 0.000000e+00 4.009755e+04 # CA2-CA92 type=non-native eps=0.002390 sigma=4.000000
pair_coeff 2 179 0.000000e+00 0.000000e+00 2.286802e+04 # CA2-SC92 type=non-native eps=0.002390 sigma=3.817121
pair_coeff 2 180 0.000000e+00 0.000000e+00 4.009755e+04 # CA2-CA93 type=non-native eps=0.002390 sigma=4.000000
pair_coeff 2 181 0.000000e+00 0.000000e+00 2.880942e+05 # CA2-SC93 type=non-native eps=0.002390 sigma=4.714418
pair_coeff 2 182 0.000000e+00 0.000000e+00 4.009755e+04 # CA2-CA94 type=non-native eps=0.002390 sigma=4.000000
pair_coeff 2 183 0.000000e+00 0.000000e+00 6.317440e+04 # CA2-SC94 type=non-native eps=0.002390 sigma=4.154435
pair_coeff 2 184 0.000000e+00 0.000000e+00 4.009755e+04 # CA2-CA95 type=non-native eps=0.002390 sigma=4.000000
pair_coeff 2 185 0.000000e+00 0.000000e+00 4.009755e+04 # CA2-CA96 type=non-native eps=0.002390 sigma=4.000000
pair_coeff 2 186 0.000000e+00 0.000000e+00 2.286802e+04 # CA2-SC96 type=non-native eps=0.002390 sigma=3.817121
pair_coeff 2 187 0.000000e+00 0.000000e+00 4.009755e+04 # CA2-CA97 type=non-native eps=0.002390 sigma=4.000000
pair_coeff 2 188 0.000000e+00 0.000000e+00 4.009755e+04 # CA2-SC97 type=non-native eps=0.002390 sigma=4.000000
pair_coeff 2 189 0.000000e+00 0.000000e+00 4.009755e+04 # CA2-CA98 type=non-native eps=0.002390 sigma=4.000000
pair_coeff 2 190 0.000000e+00 0.000000e+00 2.286802e+04 # CA2-SC98 type=non-native eps=0.002390 sigma=3.817121
pair_coeff 2 191 0.000000e+00 0.000000e+00 4.009755e+04 # CA2-CA99 type=non-native eps=0.002390 sigma=4.000000
pair_coeff 2 192 0.000000e+00 0.000000e+00 4.009755e+04 # CA2-SC99 type=non-native eps=0.002390 sigma=4.000000
pair_coeff 2 193 0.000000e+00 0.000000e+00 4.009755e+04 # CA2-CA100 type=non-native eps=0.002390 sigma=4.000000
pair_coeff 2 194 0.000000e+00 0.000000e+00 1.085818e+04 # CA2-SC100 type=non-native eps=0.002390 sigma=3.587401
pair_coeff 2 195 0.000000e+00 0.000000e+00 4.009755e+04 # CA2-CA101 type=non-native eps=0.002390 sigma=4.000000
pair_coeff 2 196 0.000000e+00 0.000000e+00 6.317440e+04 # CA2-SC101 type=non-native eps=0.002390 sigma=4.154435
pair_coeff 2 197 0.000000e+00 0.000000e+00 4.009755e+04 # CA2-CA102 type=non-native eps=0.002390 sigma=4.000000
pair_coeff 2 198 0.000000e+00 0.000000e+00 1.085818e+04 # CA2-SC102 type=non-native eps=0.002390 sigma=3.587401
pair_coeff 2 199 0.000000e+00 0.000000e+00 4.009755e+04 # CA2-CA103 type=non-native eps=0.002390 sigma=4.000000
pair_coeff 2 200 0.000000e+00 0.000000e+00 2.286802e+04 # CA2-SC103 type=non-native eps=0.002390 sigma=3.817121
pair_coeff 2 201 0.000000e+00 0.000000e+00 4.009755e+04 # CA2-CA104 type=non-native eps=0.002390 sigma=4.000000
pair_coeff 2 202 0.000000e+00 0.000000e+00 1.085818e+04 # CA2-SC104 type=non-native eps=0.002390 sigma=3.587401
pair_coeff 2 203 0.000000e+00 0.000000e+00 4.009755e+04 # CA2-CA105 type=non-native eps=0.002390 sigma=4.000000
pair_coeff 2 204 0.000000e+00 0.000000e+00 6.317440e+04 # CA2-SC105 type=non-native eps=0.002390 sigma=4.154435
pair_coeff 2 205 0.000000e+00 0.000000e+00 4.009755e+04 # CA2-CA106 type=non-native eps=0.002390 sigma=4.000000
pair_coeff 2 206 0.000000e+00 0.000000e+00 4.009755e+04 # CA2-SC106 type=non-native eps=0.002390 sigma=4.000000
pair_coeff 2 207 0.000000e+00 0.000000e+00 4.009755e+04 # CA2-CA107 type=non-native eps=0.002390 sigma=4.000000
pair_coeff 2 208 0.000000e+00 0.000000e+00 1.085818e+04 # CA2-SC107 type=non-native eps=0.002390 sigma=3.587401
pair_coeff 3 3 0.000000e+00 0.000000e+00 1.268711e+04 # SC2-SC2 type=non-native eps=0.002390 sigma=3.634241
pair_coeff 3 4 0.000000e+00 0.000000e+00 2.286802e+04 # SC2-CA3 type=non-native eps=0.002390 sigma=3.817121
pair_coeff 3 5 0.000000e+00 0.000000e+00 2.286802e+04 # SC2-SC3 type=non-native eps=0.002390 sigma=3.817121
pair_coeff 3 6 0.000000e+00 0.000000e+00 2.286802e+04 # SC2-CA4 type=non-native eps=0.002390 sigma=3.817121
pair_coeff 3 7 0.000000e+00 0.000000e+00 2.286802e+04 # SC2-SC4 type=non-native eps=0.002390 sigma=3.817121
pair_coeff 3 8 0.000000e+00 0.000000e+00 2.286802e+04 # SC2-CA5 type=non-native eps=0.002390 sigma=3.817121
pair_coeff 3 9 0.000000e+00 0.000000e+00 1.721862e+03 # SC2-SC5 type=non-native eps=0.002390 sigma=3.077042
pair_coeff 3 10 0.000000e+00 0.000000e+00 2.286802e+04 # SC2-CA6 type=non-native eps=0.002390 sigma=3.817121
pair_coeff 3 11 0.000000e+00 0.000000e+00 5.795236e+03 # SC2-SC6 type=non-native eps=0.002390 sigma=3.404522
pair_coeff 3 12 0.000000e+00 0.000000e+00 2.286802e+04 # SC2-CA7 type=non-native eps=0.002390 sigma=3.817121
pair_coeff 3 13 0.000000e+00 0.000000e+00 1.268711e+04 # SC2-SC7 type=non-native eps=0.002390 sigma=3.634241
pair_coeff 3 14 0.000000e+00 0.000000e+00 2.286802e+04 # SC2-CA8 type=non-native eps=0.002390 sigma=3.817121
pair_coeff 3 15 0.000000e+00 0.000000e+00 3.680656e+04 # SC2-SC8 type=non-native eps=0.002390 sigma=3.971555
pair_coeff 3 16 0.000000e+00 0.000000e+00 2.286802e+04 # SC2-CA9 type=non-native eps=0.002390 sigma=3.817121
pair_coeff 3 17 0.000000e+00 0.000000e+00 3.680656e+04 # SC2-SC9 type=non-native eps=0.002390 sigma=3.971555
pair_coeff 3 18 0.000000e+00 0.000000e+00 2.286802e+04 # SC2-CA10 type=non-native eps=0.002390 sigma=3.817121
pair_coeff 3 19 0.000000e+00 0.000000e+00 3.680656e+04 # SC2-SC10 type=non-native eps=0.002390 sigma=3.971555
pair_coeff 3 20 0.000000e+00 0.000000e+00 2.286802e+04 # SC2-CA11 type=non-native eps=0.002390 sigma=3.817121
pair_coeff 3 21 0.000000e+00 0.000000e+00 2.286802e+04 # SC2-CA12 type=non-native eps=0.002390 sigma=3.817121
pair_coeff 3 22 0.000000e+00 0.000000e+00 1.268711e+04 # SC2-SC12 type=non-native eps=0.002390 sigma=3.634241
pair_coeff 3 23 0.000000e+00 0.000000e+00 2.286802e+04 # SC2-CA13 type=non-native eps=0.002390 sigma=3.817121
pair_coeff 3 24 0.000000e+00 0.000000e+00 7.782318e+04 # SC2-SC13 type=non-native eps=0.002390 sigma=4.227263
pair_coeff 3 25 0.000000e+00 0.000000e+00 2.286802e+04 # SC2-CA14 type=non-native eps=0.002390 sigma=3.817121
pair_coeff 3 26 0.000000e+00 0.000000e+00 7.782318e+04 # SC2-SC14 type=non-native eps=0.002390 sigma=4.227263
pair_coeff 3 27 0.000000e+00 0.000000e+00 2.286802e+04 # SC2-CA15 type=non-native eps=0.002390 sigma=3.817121
pair_coeff 3 28 0.000000e+00 0.000000e+00 1.721862e+03 # SC2-SC15 type=non-native eps=0.002390 sigma=3.077042
pair_coeff 3 29 0.000000e+00 0.000000e+00 2.286802e+04 # SC2-CA16 type=non-native eps=0.002390 sigma=3.817121
pair_coeff 3 30 0.000000e+00 0.000000e+00 2.286802e+04 # SC2-SC16 type=non-native eps=0.002390 sigma=3.817121
pair_coeff 3 31 0.000000e+00 0.000000e+00 2.286802e+04 # SC2-CA17 type=non-native eps=0.002390 sigma=3.817121
pair_coeff 3 32 0.000000e+00 0.000000e+00 2.286802e+04 # SC2-SC17 type=non-native eps=0.002390 sigma=3.817121
pair_coeff 3 33 0.000000e+00 0.000000e+00 2.286802e+04 # SC2-CA18 type=non-native eps=0.002390 sigma=3.817121
pair_coeff 3 34 0.000000e+00 0.000000e+00 7.782318e+04 # SC2-SC18 type=non-native eps=0.002390 sigma=4.227263
pair_coeff 3 35 0.000000e+00 0.000000e+00 2.286802e+04 # SC2-CA19 type=non-native eps=0.002390 sigma=3.817121
pair_coeff 3 36 0.000000e+00 0.000000e+00 1.721862e+03 # SC2-SC19 type=non-native eps=0.002390 sigma=3.077042
pair_coeff 3 37 0.000000e+00 0.000000e+00 2.286802e+04 # SC2-CA20 type=non-native eps=0.002390 sigma=3.817121
pair_coeff 3 38 0.000000e+00 0.000000e+00 1.268711e+04 # SC2-SC20 type=non-native eps=0.002390 sigma=3.634241
pair_coeff 3 39 0.000000e+00 0.000000e+00 2.286802e+04 # SC2-CA21 type=non-native eps=0.002390 sigma=3.817121
pair_coeff 3 40 0.000000e+00 0.000000e+00 2.286802e+04 # SC2-CA22 type=non-native eps=0.002390 sigma=3.817121
pair_coeff 3 41 0.000000e+00 0.000000e+00 3.680656e+04 # SC2-SC22 type=non-native eps=0.002390 sigma=3.971555
pair_coeff 3 42 0.000000e+00 0.000000e+00 2.286802e+04 # SC2-CA23 type=non-native eps=0.002390 sigma=3.817121
pair_coeff 3 43 0.000000e+00 0.000000e+00 1.058342e+05 # SC2-SC23 type=non-native eps=0.002390 sigma=4.336963
pair_coeff 3 44 0.000000e+00 0.000000e+00 2.286802e+04 # SC2-CA24 type=non-native eps=0.002390 sigma=3.817121
pair_coeff 3 45 0.000000e+00 0.000000e+00 2.286802e+04 # SC2-SC24 type=non-native eps=0.002390 sigma=3.817121
pair_coeff 3 46 0.000000e+00 0.000000e+00 2.286802e+04 # SC2-CA25 type=non-native eps=0.002390 sigma=3.817121
pair_coeff 3 47 0.000000e+00 0.000000e+00 3.680656e+04 # SC2-SC25 type=non-native eps=0.002390 sigma=3.971555
pair_coeff 3 48 0.000000e+00 0.000000e+00 2.286802e+04 # SC2-CA26 type=non-native eps=0.002390 sigma=3.817121
pair_coeff 3 49 0.000000e+00 0.000000e+00 1.721862e+03 # SC2-SC26 type=non-native eps=0.002390 sigma=3.077042
pair_coeff 3 50 0.000000e+00 0.000000e+00 2.286802e+04 # SC2-CA27 type=non-native eps=0.002390 sigma=3.817121
pair_coeff 3 51 0.000000e+00 0.000000e+00 5.795236e+03 # SC2-SC27 type=non-native eps=0.002390 sigma=3.404522
pair_coeff 3 52 0.000000e+00 0.000000e+00 2.286802e+04 # SC2-CA28 type=non-native eps=0.002390 sigma=3.817121
pair_coeff 3 53 0.000000e+00 0.000000e+00 2.286802e+04 # SC2-SC28 type=non-native eps=0.002390 sigma=3.817121
pair_coeff 3 54 0.000000e+00 0.000000e+00 2.286802e+04 # SC2-CA29 type=non-native eps=0.002390 sigma=3.817121
pair_coeff 3 55 0.000000e+00 0.000000e+00 2.286802e+04 # SC2-SC29 type=non-native eps=0.002390 sigma=3.817121
pair_coeff 3 56 0.000000e+00 0.000000e+00 2.286802e+04 # SC2-CA30 type=non-native eps=0.002390 sigma=3.817121
pair_coeff 3 57 0.000000e+00 0.000000e+00 2.286802e+04 # SC2-SC30 type=non-native eps=0.002390 sigma=3.817121
pair_coeff 3 58 0.000000e+00 0.000000e+00 2.286802e+04 # SC2-CA31 type=non-native eps=0.002390 sigma=3.817121
pair_coeff 3 59 0.000000e+00 0.000000e+00 1.058342e+05 # SC2-SC31 type=non-native eps=0.002390 sigma=4.336963
pair_coeff 3 60 0.000000e+00 0.000000e+00 2.286802e+04 # SC2-CA32 type=non-native eps=0.002390 sigma=3.817121
pair_coeff 3 61 0.000000e+00 0.000000e+00 5.496954e+04 # SC2-SC32 type=non-native eps=0.002390 sigma=4.106549
pair_coeff 3 62 0.000000e+00 0.000000e+00 2.286802e+04 # SC2-CA33 type=non-native eps=0.002390 sigma=3.817121
pair_coeff 3 63 0.000000e+00 0.000000e+00 5.795236e+03 # SC2-SC33 type=non-native eps=0.002390 sigma=3.404522
pair_coeff 3 64 0.000000e+00 0.000000e+00 2.286802e+04 # SC2-CA34 type=non-native eps=0.002390 sigma=3.817121
pair_coeff 3 65 0.000000e+00 0.000000e+00 7.782318e+04 # SC2-SC34 type=non-native eps=0.002390 sigma=4.227263
pair_coeff 3 66 0.000000e+00 0.000000e+00 2.286802e+04 # SC2-CA35 type=non-native eps=0.002390 sigma=3.817121
pair_coeff 3 67 0.000000e+00 0.000000e+00 1.721862e+03 # SC2-SC35 type=non-native eps=0.002390 sigma=3.077042
pair_coeff 3 68 0.000000e+00 0.000000e+00 2.286802e+04 # SC2-CA36 type=non-native eps=0.002390 sigma=3.817121
pair_coeff 3 69 0.000000e+00 0.000000e+00 2.286802e+04 # SC2-SC36 type=non-native eps=0.002390 sigma=3.817121
pair_coeff 3 70 0.000000e+00 0.000000e+00 2.286802e+04 # SC2-CA37 type=non-native eps=0.002390 sigma=3.817121
pair_coeff 3 71 0.000000e+00 0.000000e+00 3.680656e+04 # SC2-SC37 type=non-native eps=0.002390 sigma=3.971555
pair_coeff 3 72 0.000000e+00 0.000000e+00 2.286802e+04 # SC2-CA38 type=non-native eps=0.002390 sigma=3.817121
pair_coeff 3 73 0.000000e+00 0.000000e+00 1.268711e+04 # SC2-SC38 type=non-native eps=0.002390 sigma=3.634241
pair_coeff 3 74 0.000000e+00 0.000000e+00 2.286802e+04 # SC2-CA39 type=non-native eps=0.002390 sigma=3.817121
pair_coeff 3 75 0.000000e+00 0.000000e+00 1.268711e+04 # SC2-SC39 type=non-native eps=0.002390 sigma=3.634241
pair_coeff 3 76 0.000000e+00 0.000000e+00 2.286802e+04 # SC2-CA40 type=non-native eps=0.002390 sigma=3.817121
pair_coeff 3 77 0.000000e+00 0.000000e+00 7.782318e+04 # SC2-SC40 type=non-native eps=0.002390 sigma=4.227263
pair_coeff 3 78 0.000000e+00 0.000000e+00 2.286802e+04 # SC2-CA41 type=non-native eps=0.002390 sigma=3.817121
pair_coeff 3 79 0.000000e+00 0.000000e+00 1.721862e+03 # SC2-SC41 type=non-native eps=0.002390 sigma=3.077042
pair_coeff 3 80 0.000000e+00 0.000000e+00 2.286802e+04 # SC2-CA42 type=non-native eps=0.002390 sigma=3.817121
pair_coeff 3 81 0.000000e+00 0.000000e+00 7.782318e+04 # SC2-SC42 type=non-native eps=0.002390 sigma=4.227263
pair_coeff 3 82 0.000000e+00 0.000000e+00 2.286802e+04 # SC2-CA43 type=non-native eps=0.002390 sigma=3.817121
pair_coeff 3 83 0.000000e+00 0.000000e+00 3.680656e+04 # SC2-SC43 type=non-native eps=0.002390 sigma=3.971555
pair_coeff 3 84 0.000000e+00 0.000000e+00 2.286802e+04 # SC2-CA44 type=non-native eps=0.002390 sigma=3.817121
pair_coeff 3 85 0.000000e+00 0.000000e+00 3.680656e+04 # SC2-SC44 type=non-native eps=0.002390 sigma=3.971555
pair_coeff 3 86 0.000000e+00 0.000000e+00 2.286802e+04 # SC2-CA45 type=non-native eps=0.002390 sigma=3.817121
pair_coeff 3 87 0.000000e+00 0.000000e+00 2.286802e+04 # SC2-SC45 type=non-native eps=0.002390 sigma=3.817121
pair_coeff 3 88 0.000000e+00 0.000000e+00 2.286802e+04 # SC2-CA46 type=non-native eps=0.002390 sigma=3.817121
pair_coeff 3 89 0.000000e+00 0.000000e+00 1.268711e+04 # SC2-SC46 type=non-native eps=0.002390 sigma=3.634241
pair_coeff 3 90 0.000000e+00 0.000000e+00 2.286802e+04 # SC2-CA47 type=non-native eps=0.002390 sigma=3.817121
pair_coeff 3 91 0.000000e+00 0.000000e+00 1.721862e+03 # SC2-SC47 type=non-native eps=0.002390 sigma=3.077042
pair_coeff 3 92 0.000000e+00 0.000000e+00 2.286802e+04 # SC2-CA48 type=non-native eps=0.002390 sigma=3.817121
pair_coeff 3 93 0.000000e+00 0.000000e+00 2.286802e+04 # SC2-CA49 type=non-native eps=0.002390 sigma=3.817121
pair_coeff 3 94 0.000000e+00 0.000000e+00 1.268711e+04 # SC2-SC49 type=non-native eps=0.002390 sigma=3.634241
pair_coeff 3 95 0.000000e+00 0.000000e+00 2.286802e+04 # SC2-CA50 type=non-native eps=0.002390 sigma=3.817121
pair_coeff 3 96 0.000000e+00 0.000000e+00 2.286802e+04 # SC2-SC50 type=non-native eps=0.002390 sigma=3.817121
pair_coeff 3 97 0.000000e+00 0.000000e+00 2.286802e+04 # SC2-CA51 type=non-native eps=0.002390 sigma=3.817121
pair_coeff 3 98 0.000000e+00 0.000000e+00 1.058342e+05 # SC2-SC51 type=non-native eps=0.002390 sigma=4.336963
pair_coeff 3 99 0.000000e+00 0.000000e+00 2.286802e+04 # SC2-CA52 type=non-native eps=0.002390 sigma=3.817121
pair_coeff 3 100 0.000000e+00 0.000000e+00 7.782318e+04 # SC2-SC52 type=non-native eps=0.002390 sigma=4.227263
pair_coeff 3 101 0.000000e+00 0.000000e+00 2.286802e+04 # SC2-CA53 type=non-native eps=0.002390 sigma=3.817121
pair_coeff 3 102 0.000000e+00 0.000000e+00 2.286802e+04 # SC2-SC53 type=non-native eps=0.002390 sigma=3.817121
pair_coeff 3 103 0.000000e+00 0.000000e+00 2.286802e+04 # SC2-CA54 type=non-native eps=0.002390 sigma=3.817121
pair_coeff 3 104 0.000000e+00 0.000000e+00 2.286802e+04 # SC2-SC54 type=non-native eps=0.002390 sigma=3.817121
pair_coeff 3 105 0.000000e+00 0.000000e+00 2.286802e+04 # SC2-CA55 type=non-native eps=0.002390 sigma=3.817121
pair_coeff 3 106 0.000000e+00 0.000000e+00 1.268711e+04 # SC2-SC55 type=non-native eps=0.002390 sigma=3.634241
pair_coeff 3 107 0.000000e+00 0.000000e+00 2.286802e+04 # SC2-CA56 type=non-native eps=0.002390 sigma=3.817121
pair_coeff 3 108 0.000000e+00 0.000000e+00 3.680656e+04 # SC2-SC56 type=non-native eps=0.002390 sigma=3.971555
pair_coeff 3 109 0.000000e+00 0.000000e+00 2.286802e+04 # SC2-CA57 type=non-native eps=0.002390 sigma=3.817121
pair_coeff 3 110 0.000000e+00 0.000000e+00 2.286802e+04 # SC2-SC57 type=non-native eps=0.002390 sigma=3.817121
pair_coeff 3 111 0.000000e+00 0.000000e+00 2.286802e+04 # SC2-CA58 type=non-native eps=0.002390 sigma=3.817121
pair_coeff 3 112 0.000000e+00 0.000000e+00 2.286802e+04 # SC2-CA59 type=non-native eps=0.002390 sigma=3.817121
pair_coeff 3 113 0.000000e+00 0.000000e+00 7.782318e+04 # SC2-SC59 type=non-native eps=0.002390 sigma=4.227263
pair_coeff 3 114 0.000000e+00 0.000000e+00 2.286802e+04 # SC2-CA60 type=non-native eps=0.002390 sigma=3.817121
pair_coeff 3 115 0.000000e+00 0.000000e+00 1.268711e+04 # SC2-SC60 type=non-native eps=0.002390 sigma=3.634241
pair_coeff 3 116 0.000000e+00 0.000000e+00 2.286802e+04 # SC2-CA61 type=non-native eps=0.002390 sigma=3.817121
pair_coeff 3 117 0.000000e+00 0.000000e+00 1.268711e+04 # SC2-SC61 type=non-native eps=0.002390 sigma=3.634241
pair_coeff 3 118 0.000000e+00 0.000000e+00 2.286802e+04 # SC2-CA62 type=non-native eps=0.002390 sigma=3.817121
pair_coeff 3 119 0.000000e+00 0.000000e+00 5.795236e+03 # SC2-SC62 type=non-native eps=0.002390 sigma=3.404522
pair_coeff 3 120 0.000000e+00 0.000000e+00 2.286802e+04 # SC2-CA63 type=non-native eps=0.002390 sigma=3.817121
pair_coeff 3 121 0.000000e+00 0.000000e+00 1.268711e+04 # SC2-SC63 type=non-native eps=0.002390 sigma=3.634241
pair_coeff 3 122 0.000000e+00 0.000000e+00 2.286802e+04 # SC2-CA64 type=non-native eps=0.002390 sigma=3.817121
pair_coeff 3 123 0.000000e+00 0.000000e+00 3.680656e+04 # SC2-SC64 type=non-native eps=0.002390 sigma=3.971555
pair_coeff 3 124 0.000000e+00 0.000000e+00 2.286802e+04 # SC2-CA65 type=non-native eps=0.002390 sigma=3.817121
pair_coeff 3 125 0.000000e+00 0.000000e+00 1.268711e+04 # SC2-SC65 type=non-native eps=0.002390 sigma=3.634241
pair_coeff 3 126 0.000000e+00 0.000000e+00 2.286802e+04 # SC2-CA66 type=non-native eps=0.002390 sigma=3.817121
pair_coeff 3 127 0.000000e+00 0.000000e+00 5.496954e+04 # SC2-SC66 type=non-native eps=0.002390 sigma=4.106549
pair_coeff 3 128 0.000000e+00 0.000000e+00 2.286802e+04 # SC2-CA67 type=non-native eps=0.002390 sigma=3.817121
pair_coeff 3 129 0.000000e+00 0.000000e+00 2.286802e+04 # SC2-SC67 type=non-native eps=0.002390 sigma=3.817121
pair_coeff 3 130 0.000000e+00 0.000000e+00 2.286802e+04 # SC2-CA68 type=non-native eps=0.002390 sigma=3.817121
pair_coeff 3 131 0.000000e+00 0.000000e+00 2.286802e+04 # SC2-SC68 type=non-native eps=0.002390 sigma=3.817121
pair_coeff 3 132 0.000000e+00 0.000000e+00 2.286802e+04 # SC2-CA69 type=non-native eps=0.002390 sigma=3.817121
pair_coeff 3 133 0.000000e+00 0.000000e+00 2.286802e+04 # SC2-SC69 type=non-native eps=0.002390 sigma=3.817121
pair_coeff 3 134 0.000000e+00 0.000000e+00 2.286802e+04 # SC2-CA70 type=non-native eps=0.002390 sigma=3.817121
pair_coeff 3 135 0.000000e+00 0.000000e+00 5.795236e+03 # SC2-SC70 type=non-native eps=0.002390 sigma=3.404522
pair_coeff 3 136 0.000000e+00 0.000000e+00 2.286802e+04 # SC2-CA71 type=non-native eps=0.002390 sigma=3.817121
pair_coeff 3 137 0.000000e+00 0.000000e+00 1.268711e+04 # SC2-SC71 type=non-native eps=0.002390 sigma=3.634241
pair_coeff 3 138 0.000000e+00 0.000000e+00 2.286802e+04 # SC2-CA72 type=non-native eps=0.002390 sigma=3.817121
pair_coeff 3 139 0.000000e+00 0.000000e+00 7.782318e+04 # SC2-SC72 type=non-native eps=0.002390 sigma=4.227263
pair_coeff 3 140 0.000000e+00 0.000000e+00 2.286802e+04 # SC2-CA73 type=non-native eps=0.002390 sigma=3.817121
pair_coeff 3 141 0.000000e+00 0.000000e+00 5.496954e+04 # SC2-SC73 type=non-native eps=0.002390 sigma=4.106549
pair_coeff 3 142 0.000000e+00 0.000000e+00 2.286802e+04 # SC2-CA74 type=non-native eps=0.002390 sigma=3.817121
pair_coeff 3 143 0.000000e+00 0.000000e+00 2.286802e+04 # SC2-SC74 type=non-native eps=0.002390 sigma=3.817121
pair_coeff 3 144 0.000000e+00 0.000000e+00 2.286802e+04 # SC2-CA75 type=non-native eps=0.002390 sigma=3.817121
pair_coeff 3 145 0.000000e+00 0.000000e+00 3.680656e+04 # SC2-SC75 type=non-native eps=0.002390 sigma=3.971555
pair_coeff 3 146 0.000000e+00 0.000000e+00 2.286802e+04 # SC2-CA76 type=non-native eps=0.002390 sigma=3.817121
pair_coeff 3 147 0.000000e+00 0.000000e+00 1.268711e+04 # SC2-SC76 type=non-native eps=0.002390 sigma=3.634241
pair_coeff 3 148 0.000000e+00 0.000000e+00 2.286802e+04 # SC2-CA77 type=non-native eps=0.002390 sigma=3.817121
pair_coeff 3 149 0.000000e+00 0.000000e+00 5.496954e+04 # SC2-SC77 type=non-native eps=0.002390 sigma=4.106549
pair_coeff 3 150 0.000000e+00 0.000000e+00 2.286802e+04 # SC2-CA78 type=non-native eps=0.002390 sigma=3.817121
pair_coeff 3 151 0.000000e+00 0.000000e+00 2.286802e+04 # SC2-SC78 type=non-native eps=0.002390 sigma=3.817121
pair_coeff 3 152 0.000000e+00 0.000000e+00 2.286802e+04 # SC2-CA79 type=non-native eps=0.002390 sigma=3.817121
pair_coeff 3 153 0.000000e+00 0.000000e+00 3.680656e+04 # SC2-SC79 type=non-native eps=0.002390 sigma=3.971555
pair_coeff 3 154 0.000000e+00 0.000000e+00 2.286802e+04 # SC2-CA80 type=non-native eps=0.002390 sigma=3.817121
pair_coeff 3 155 0.000000e+00 0.000000e+00 7.782318e+04 # SC2-SC80 type=non-native eps=0.002390 sigma=4.227263
pair_coeff 3 156 0.000000e+00 0.000000e+00 2.286802e+04 # SC2-CA81 type=non-native eps=0.002390 sigma=3.817121
pair_coeff 3 157 0.000000e+00 0.000000e+00 3.680656e+04 # SC2-SC81 type=non-native eps=0.002390 sigma=3.971555
pair_coeff 3 158 0.000000e+00 0.000000e+00 2.286802e+04 # SC2-CA82 type=non-native eps=0.002390 sigma=3.817121
pair_coeff 3 159 0.000000e+00 0.000000e+00 1.721862e+03 # SC2-SC82 type=non-native eps=0.002390 sigma=3.077042
pair_coeff 3 160 0.000000e+00 0.000000e+00 2.286802e+04 # SC2-CA83 type=non-native eps=0.002390 sigma=3.817121
pair_coeff 3 161 0.000000e+00 0.000000e+00 7.782318e+04 # SC2-SC83 type=non-native eps=0.002390 sigma=4.227263
pair_coeff 3 162 0.000000e+00 0.000000e+00 2.286802e+04 # SC2-CA84 type=non-native eps=0.002390 sigma=3.817121
pair_coeff 3 163 0.000000e+00 0.000000e+00 5.795236e+03 # SC2-SC84 type=non-native eps=0.002390 sigma=3.404522
pair_coeff 3 164 0.000000e+00 0.000000e+00 2.286802e+04 # SC2-CA85 type=non-native eps=0.002390 sigma=3.817121
pair_coeff 3 165 0.000000e+00 0.000000e+00 5.795236e+03 # SC2-SC85 type=non-native eps=0.002390 sigma=3.404522
pair_coeff 3 166 0.000000e+00 0.000000e+00 2.286802e+04 # SC2-CA86 type=non-native eps=0.002390 sigma=3.817121
pair_coeff 3 167 0.000000e+00 0.000000e+00 7.782318e+04 # SC2-SC86 type=non-native eps=0.002390 sigma=4.227263
pair_coeff 3 168 0.000000e+00 0.000000e+00 2.286802e+04 # SC2-CA87 type=non-native eps=0.002390 sigma=3.817121
pair_coeff 3 169 0.000000e+00 0.000000e+00 3.680656e+04 # SC2-SC87 type=non-native eps=0.002390 sigma=3.971555
pair_coeff 3 170 0.000000e+00 0.000000e+00 2.286802e+04 # SC2-CA88 type=non-native eps=0.002390 sigma=3.817121
pair_coeff 3 171 0.000000e+00 0.000000e+00 2.286802e+04 # SC2-SC88 type=non-native eps=0.002390 sigma=3.817121
pair_coeff 3 172 0.000000e+00 0.000000e+00 2.286802e+04 # SC2-CA89 type=non-native eps=0.002390 sigma=3.817121
pair_coeff 3 173 0.000000e+00 0.000000e+00 1.058342e+05 # SC2-SC89 type=non-native eps=0.002390 sigma=4.336963
pair_coeff 3 174 0.000000e+00 0.000000e+00 2.286802e+04 # SC2-CA90 type=non-native eps=0.002390 sigma=3.817121
pair_coeff 3 175 0.000000e+00 0.000000e+00 1.721862e+03 # SC2-SC90 type=non-native eps=0.002390 sigma=3.077042
pair_coeff 3 176 0.000000e+00 0.000000e+00 2.286802e+04 # SC2-CA91 type=non-native eps=0.002390 sigma=3.817121
pair_coeff 3 177 0.000000e+00 0.000000e+00 1.268711e+04 # SC2-SC91 type=non-native eps=0.002390 sigma=3.634241
pair_coeff 3 178 0.000000e+00 0.000000e+00 2.286802e+04 # SC2-CA92 type=non-native eps=0.002390 sigma=3.817121
pair_coeff 3 179 0.000000e+00 0.000000e+00 1.268711e+04 # SC2-SC92 type=non-native eps=0.002390 sigma=3.634241
pair_coeff 3 180 0.000000e+00 0.000000e+00 2.286802e+04 # SC2-CA93 type=non-native eps=0.002390 sigma=3.817121
pair_coeff 3 181 0.000000e+00 0.000000e+00 1.792032e+05 # SC2-SC93 type=non-native eps=0.002390 sigma=4.531538
pair_coeff 3 182 0.000000e+00 0.000000e+00 2.286802e+04 # SC2-CA94 type=non-native eps=0.002390 sigma=3.817121
pair_coeff 3 183 0.000000e+00 0.000000e+00 3.680656e+04 # SC2-SC94 type=non-native eps=0.002390 sigma=3.971555
pair_coeff 3 184 0.000000e+00 0.000000e+00 2.286802e+04 # SC2-CA95 type=non-native eps=0.002390 sigma=3.817121
pair_coeff 3 185 0.000000e+00 0.000000e+00 2.286802e+04 # SC2-CA96 type=non-native eps=0.002390 sigma=3.817121
pair_coeff 3 186 0.000000e+00 0.000000e+00 1.268711e+04 # SC2-SC96 type=non-native eps=0.002390 sigma=3.634241
pair_coeff 3 187 0.000000e+00 0.000000e+00 2.286802e+04 # SC2-CA97 type=non-native eps=0.002390 sigma=3.817121
pair_coeff 3 188 0.000000e+00 0.000000e+00 2.286802e+04 # SC2-SC97 type=non-native eps=0.002390 sigma=3.817121
pair_coeff 3 189 0.000000e+00 0.000000e+00 2.286802e+04 # SC2-CA98 type=non-native eps=0.002390 sigma=3.817121
pair_coeff 3 190 0.000000e+00 0.000000e+00 1.268711e+04 # SC2-SC98 type=non-native eps=0.002390 sigma=3.634241
pair_coeff 3 191 0.000000e+00 0.000000e+00 2.286802e+04 # SC2-CA99 type=non-native eps=0.002390 sigma=3.817121
pair_coeff 3 192 0.000000e+00 0.000000e+00 2.286802e+04 # SC2-SC99 type=non-native eps=0.002390 sigma=3.817121
pair_coeff 3 193 0.000000e+00 0.000000e+00 2.286802e+04 # SC2-CA100 type=non-native eps=0.002390 sigma=3.817121
pair_coeff 3 194 0.000000e+00 0.000000e+00 5.795236e+03 # SC2-SC100 type=non-native eps=0.002390 sigma=3.404522
pair_coeff 3 195 0.000000e+00 0.000000e+00 2.286802e+04 # SC2-CA101 type=non-native eps=0.002390 sigma=3.817121
pair_coeff 3 196 0.000000e+00 0.000000e+00 3.680656e+04 # SC2-SC101 type=non-native eps=0.002390 sigma=3.971555
pair_coeff 3 197 0.000000e+00 0.000000e+00 2.286802e+04 # SC2-CA102 type=non-native eps=0.002390 sigma=3.817121
pair_coeff 3 198 0.000000e+00 0.000000e+00 5.795236e+03 # SC2-SC102 type=non-native eps=0.002390 sigma=3.404522
pair_coeff 3 199 0.000000e+00 0.000000e+00 2.286802e+04 # SC2-CA103 type=non-native eps=0.002390 sigma=3.817121
pair_coeff 3 200 0.000000e+00 0.000000e+00 1.268711e+04 # SC2-SC103 type=non-native eps=0.002390 sigma=3.634241
pair_coeff 3 201 0.000000e+00 0.000000e+00 2.286802e+04 # SC2-CA104 type=non-native eps=0.002390 sigma=3.817121
pair_coeff 3 202 0.000000e+00 0.000000e+00 5.795236e+03 # SC2-SC104 type=non-native eps=0.002390 sigma=3.404522
pair_coeff 3 203 0.000000e+00 0.000000e+00 2.286802e+04 # SC2-CA105 type=non-native eps=0.002390 sigma=3.817121
pair_coeff 3 204 0.000000e+00 0.000000e+00 3.680656e+04 # SC2-SC105 type=non-native eps=0.002390 sigma=3.971555
pair_coeff 3 205 0.000000e+00 0.000000e+00 2.286802e+04 # SC2-CA106 type=non-native eps=0.002390 sigma=3.817121
pair_coeff 3 206 0.000000e+00 0.000000e+00 2.286802e+04 # SC2-SC106 type=non-native eps=0.002390 sigma=3.817121
pair_coeff 3 207 0.000000e+00 0.000000e+00 2.286802e+04 # SC2-CA107 type=non-native eps=0.002390 sigma=3.817121
pair_coeff 3 208 0.000000e+00 0.000000e+00 5.795236e+03 # SC2-SC107 type=non-native eps=0.002390 sigma=3.404522
pair_coeff 4 4 0.000000e+00 0.000000e+00 4.009755e+04 # CA3-CA3 type=non-native eps=0.002390 sigma=4.000000
pair_coeff 4 5 0.000000e+00 0.000000e+00 4.009755e+04 # CA3-SC3 type=non-native eps=0.002390 sigma=4.000000
pair_coeff 4 6 0.000000e+00 0.000000e+00 4.009755e+04 # CA3-CA4 type=non-native eps=0.002390 sigma=4.000000
pair_coeff 4 7 0.000000e+00 0.000000e+00 4.009755e+04 # CA3-SC4 type=non-native eps=0.002390 sigma=4.000000
pair_coeff 4 8 0.000000e+00 0.000000e+00 4.009755e+04 # CA3-CA5 type=non-native eps=0.002390 sigma=4.000000
pair_coeff 4 9 0.000000e+00 0.000000e+00 3.442571e+03 # CA3-SC5 type=non-native eps=0.002390 sigma=3.259921
pair_coeff 4 10 0.000000e+00 0.000000e+00 4.009755e+04 # CA3-CA6 type=non-native eps=0.002390 sigma=4.000000
pair_coeff 4 11 0.000000e+00 0.000000e+00 1.085818e+04 # CA3-SC6 type=non-native eps=0.002390 sigma=3.587401
pair_coeff 4 12 0.000000e+00 0.000000e+00 4.009755e+04 # CA3-CA7 type=non-native eps=0.002390 sigma=4.000000
pair_coeff 4 13 0.000000e+00 0.000000e+00 2.286802e+04 # CA3-SC7 type=non-native eps=0.002390 sigma=3.817121
pair_coeff 4 14 0.000000e+00 0.000000e+00 4.009755e+04 # CA3-CA8 type=non-native eps=0.002390 sigma=4.000000
pair_coeff 4 15 0.000000e+00 0.000000e+00 6.317440e+04 # CA3-SC8 type=non-native eps=0.002390 sigma=4.154435
pair_coeff 4 16 0.000000e+00 0.000000e+00 4.009755e+04 # CA3-CA9 type=non-native eps=0.002390 sigma=4.000000
pair_coeff 4 17 0.000000e+00 0.000000e+00 6.317440e+04 # CA3-SC9 type=non-native eps=0.002390 sigma=4.154435
pair_coeff 4 18 0.000000e+00 0.000000e+00 4.009755e+04 # CA3-CA10 type=non-native eps=0.002390 sigma=4.000000
pair_coeff 4 19 0.000000e+00 0.000000e+00 6.317440e+04 # CA3-SC10 type=non-native eps=0.002390 sigma=4.154435
pair_coeff 4 20 0.000000e+00 0.000000e+00 4.009755e+04 # CA3-CA11 type=non-native eps=0.002390 sigma=4.000000
pair_coeff 4 21 0.000000e+00 0.000000e+00 4.009755e+04 # CA3-CA12 type=non-native eps=0.002390 sigma=4.000000
pair_coeff 4 22 0.000000e+00 0.000000e+00 2.286802e+04 # CA3-SC12 type=non-native eps=0.002390 sigma=3.817121
pair_coeff 4 23 0.000000e+00 0.000000e+00 4.009755e+04 # CA3-CA13 type=non-native eps=0.002390 sigma=4.000000
pair_coeff 4 24 0.000000e+00 0.000000e+00 1.293687e+05 # CA3-SC13 type=non-native eps=0.002390 sigma=4.410142
pair_coeff 4 25 0.000000e+00 0.000000e+00 4.009755e+04 # CA3-CA14 type=non-native eps=0.002390 sigma=4.000000
pair_coeff 4 26 0.000000e+00 0.000000e+00 1.293687e+05 # CA3-SC14 type=non-native eps=0.002390 sigma=4.410142
pair_coeff 4 27 0.000000e+00 0.000000e+00 4.009755e+04 # CA3-CA15 type=non-native eps=0.002390 sigma=4.000000
pair_coeff 4 28 0.000000e+00 0.000000e+00 3.442571e+03 # CA3-SC15 type=non-native eps=0.002390 sigma=3.259921
pair_coeff 4 29 0.000000e+00 0.000000e+00 4.009755e+04 # CA3-CA16 type=non-native eps=0.002390 sigma=4.000000
pair_coeff 4 30 0.000000e+00 0.000000e+00 4.009755e+04 # CA3-SC16 type=non-native eps=0.002390 sigma=4.000000
pair_coeff 4 31 0.000000e+00 0.000000e+00 4.009755e+04 # CA3-CA17 type=non-native eps=0.002390 sigma=4.000000
pair_coeff 4 32 0.000000e+00 0.000000e+00 4.009755e+04 # CA3-SC17 type=non-native eps=0.002390 sigma=4.000000
pair_coeff 4 33 0.000000e+00 0.000000e+00 4.009755e+04 # CA3-CA18 type=non-native eps=0.002390 sigma=4.000000
pair_coeff 4 34 0.000000e+00 0.000000e+00 1.293687e+05 # CA3-SC18 type=non-native eps=0.002390 sigma=4.410142
pair_coeff 4 35 0.000000e+00 0.000000e+00 4.009755e+04 # CA3-CA19 type=non-native eps=0.002390 sigma=4.000000
pair_coeff 4 36 0.000000e+00 0.000000e+00 3.442571e+03 # CA3-SC19 type=non-native eps=0.002390 sigma=3.259921
pair_coeff 4 37 0.000000e+00 0.000000e+00 4.009755e+04 # CA3-CA20 type=non-native eps=0.002390 sigma=4.000000
pair_coeff 4 38 0.000000e+00 0.000000e+00 2.286802e+04 # CA3-SC20 type=non-native eps=0.002390 sigma=3.817121
pair_coeff 4 39 0.000000e+00 0.000000e+00 4.009755e+04 # CA3-CA21 type=non-native eps=0.002390 sigma=4.000000
pair_coeff 4 40 0.000000e+00 0.000000e+00 4.009755e+04 # CA3-CA22 type=non-native eps=0.002390 sigma=4.000000
pair_coeff 4 41 0.000000e+00 0.000000e+00 6.317440e+04 # CA3-SC22 type=non-native eps=0.002390 sigma=4.154435
pair_coeff 4 42 0.000000e+00 0.000000e+00 4.009755e+04 # CA3-CA23 type=non-native eps=0.002390 sigma=4.000000
pair_coeff 4 43 0.000000e+00 0.000000e+00 1.737309e+05 # CA3-SC23 type=non-native eps=0.002390 sigma=4.519842
pair_coeff 4 44 0.000000e+00 0.000000e+00 4.009755e+04 # CA3-CA24 type=non-native eps=0.002390 sigma=4.000000
pair_coeff 4 45 0.000000e+00 0.000000e+00 4.009755e+04 # CA3-SC24 type=non-native eps=0.002390 sigma=4.000000
pair_coeff 4 46 0.000000e+00 0.000000e+00 4.009755e+04 # CA3-CA25 type=non-native eps=0.002390 sigma=4.000000
pair_coeff 4 47 0.000000e+00 0.000000e+00 6.317440e+04 # CA3-SC25 type=non-native eps=0.002390 sigma=4.154435
pair_coeff 4 48 0.000000e+00 0.000000e+00 4.009755e+04 # CA3-CA26 type=non-native eps=0.002390 sigma=4.000000
pair_coeff 4 49 0.000000e+00 0.000000e+00 3.442571e+03 # CA3-SC26 type=non-native eps=0.002390 sigma=3.259921
pair_coeff 4 50 0.000000e+00 0.000000e+00 4.009755e+04 # CA3-CA27 type=non-native eps=0.002390 sigma=4.000000
pair_coeff 4 51 0.000000e+00 0.000000e+00 1.085818e+04 # CA3-SC27 type=non-native eps=0.002390 sigma=3.587401
pair_coeff 4 52 0.000000e+00 0.000000e+00 4.009755e+04 # CA3-CA28 type=non-native eps=0.002390 sigma=4.000000
pair_coeff 4 53 0.000000e+00 0.000000e+00 4.009755e+04 # CA3-SC28 type=non-native eps=0.002390 sigma=4.000000
pair_coeff 4 54 0.000000e+00 0.000000e+00 4.009755e+04 # CA3-CA29 type=non-native eps=0.002390 sigma=4.000000
pair_coeff 4 55 0.000000e+00 0.000000e+00 4.009755e+04 # CA3-SC29 type=non-native eps=0.002390 sigma=4.000000
pair_coeff 4 56 0.000000e+00 0.000000e+00 4.009755e+04 # CA3-CA30 type=non-native eps=0.002390 sigma=4.000000
pair_coeff 4 57 0.000000e+00 0.000000e+00 4.009755e+04 # CA3-SC30 type=non-native eps=0.002390 sigma=4.000000
pair_coeff 4 58 0.000000e+00 0.000000e+00 4.009755e+04 # CA3-CA31 type=non-native eps=0.002390 sigma=4.000000
pair_coeff 4 59 0.000000e+00 0.000000e+00 1.737309e+05 # CA3-SC31 type=non-native eps=0.002390 sigma=4.519842
pair_coeff 4 60 0.000000e+00 0.000000e+00 4.009755e+04 # CA3-CA32 type=non-native eps=0.002390 sigma=4.000000
pair_coeff 4 61 0.000000e+00 0.000000e+00 9.272377e+04 # CA3-SC32 type=non-native eps=0.002390 sigma=4.289428
pair_coeff 4 62 0.000000e+00 0.000000e+00 4.009755e+04 # CA3-CA33 type=non-native eps=0.002390 sigma=4.000000
pair_coeff 4 63 0.000000e+00 0.000000e+00 1.085818e+04 # CA3-SC33 type=non-native eps=0.002390 sigma=3.587401
pair_coeff 4 64 0.000000e+00 0.000000e+00 4.009755e+04 # CA3-CA34 type=non-native eps=0.002390 sigma=4.000000
pair_coeff 4 65 0.000000e+00 0.000000e+00 1.293687e+05 # CA3-SC34 type=non-native eps=0.002390 sigma=4.410142
pair_coeff 4 66 0.000000e+00 0.000000e+00 4.009755e+04 # CA3-CA35 type=non-native eps=0.002390 sigma=4.000000
pair_coeff 4 67 0.000000e+00 0.000000e+00 3.442571e+03 # CA3-SC35 type=non-native eps=0.002390 sigma=3.259921
pair_coeff 4 68 0.000000e+00 0.000000e+00 4.009755e+04 # CA3-CA36 type=non-native eps=0.002390 sigma=4.000000
pair_coeff 4 69 0.000000e+00 0.000000e+00 4.009755e+04 # CA3-SC36 type=non-native eps=0.002390 sigma=4.000000
pair_coeff 4 70 0.000000e+00 0.000000e+00 4.009755e+04 # CA3-CA37 type=non-native eps=0.002390 sigma=4.000000
pair_coeff 4 71 0.000000e+00 0.000000e+00 6.317440e+04 # CA3-SC37 type=non-native eps=0.002390 sigma=4.154435
pair_coeff 4 72 0.000000e+00 0.000000e+00 4.009755e+04 # CA3-CA38 type=non-native eps=0.002390 sigma=4.000000
pair_coeff 4 73 0.000000e+00 0.000000e+00 2.286802e+04 # CA3-SC38 type=non-native eps=0.002390 sigma=3.817121
pair_coeff 4 74 0.000000e+00 0.000000e+00 4.009755e+04 # CA3-CA39 type=non-native eps=0.002390 sigma=4.000000
pair_coeff 4 75 0.000000e+00 0.000000e+00 2.286802e+04 # CA3-SC39 type=non-native eps=0.002390 sigma=3.817121
pair_coeff 4 76 0.000000e+00 0.000000e+00 4.009755e+04 # CA3-CA40 type=non-native eps=0.002390 sigma=4.000000
pair_coeff 4 77 0.000000e+00 0.000000e+00 1.293687e+05 # CA3-SC40 type=non-native eps=0.002390 sigma=4.410142
pair_coeff 4 78 0.000000e+00 0.000000e+00 4.009755e+04 # CA3-CA41 type=non-native eps=0.002390 sigma=4.000000
pair_coeff 4 79 0.000000e+00 0.000000e+00 3.442571e+03 # CA3-SC41 type=non-native eps=0.002390 sigma=3.259921
pair_coeff 4 80 0.000000e+00 0.000000e+00 4.009755e+04 # CA3-CA42 type=non-native eps=0.002390 sigma=4.000000
pair_coeff 4 81 0.000000e+00 0.000000e+00 1.293687e+05 # CA3-SC42 type=non-native eps=0.002390 sigma=4.410142
pair_coeff 4 82 0.000000e+00 0.000000e+00 4.009755e+04 # CA3-CA43 type=non-native eps=0.002390 sigma=4.000000
pair_coeff 4 83 0.000000e+00 0.000000e+00 6.317440e+04 # CA3-SC43 type=non-native eps=0.002390 sigma=4.154435
pair_coeff 4 84 0.000000e+00 0.000000e+00 4.009755e+04 # CA3-CA44 type=non-native eps=0.002390 sigma=4.000000
pair_coeff 4 85 0.000000e+00 0.000000e+00 6.317440e+04 # CA3-SC44 type=non-native eps=0.002390 sigma=4.154435
pair_coeff 4 86 0.000000e+00 0.000000e+00 4.009755e+04 # CA3-CA45 type=non-native eps=0.002390 sigma=4.000000
pair_coeff 4 87 0.000000e+00 0.000000e+00 4.009755e+04 # CA3-SC45 type=non-native eps=0.002390 sigma=4.000000
pair_coeff 4 88 0.000000e+00 0.000000e+00 4.009755e+04 # CA3-CA46 type=non-native eps=0.002390 sigma=4.000000
pair_coeff 4 89 0.000000e+00 0.000000e+00 2.286802e+04 # CA3-SC46 type=non-native eps=0.002390 sigma=3.817121
pair_coeff 4 90 0.000000e+00 0.000000e+00 4.009755e+04 # CA3-CA47 type=non-native eps=0.002390 sigma=4.000000
pair_coeff 4 91 0.000000e+00 0.000000e+00 3.442571e+03 # CA3-SC47 type=non-native eps=0.002390 sigma=3.259921
pair_coeff 4 92 0.000000e+00 0.000000e+00 4.009755e+04 # CA3-CA48 type=non-native eps=0.002390 sigma=4.000000
pair_coeff 4 93 0.000000e+00 0.000000e+00 4.009755e+04 # CA3-CA49 type=non-native eps=0.002390 sigma=4.000000
[...]
 4788000    13.743349   -1.7436528   -9.8824198    2.8006096    3.6566141    1.6815434 
 4789000    14.894225   -2.0105871   -9.5996801    2.5886765    2.9955253    2.0048913 
 4790000     13.80817   -1.9184037   -9.7334243    2.6278549    3.5092389    1.6779268 
 4791000    13.108751   -2.4446756   -9.7211877    2.6084689    3.2739905    1.3940526 
 4792000    12.717265   -1.3155702   -9.6195806    3.0260172    3.5964463     1.681547 
 4793000    14.224453   -1.5475101   -9.6635721    2.7175911    3.4927382    1.9057326 
 4794000    12.978885   -1.7136352   -9.7003426    2.8035727    3.3868912    1.7962436 
 4795000    13.932308   -1.7853362   -9.7452008    2.8368311    3.0600481    2.0629855 
 4796000    13.606659   -2.0478032   -9.7380441    2.7416944    3.0555798    1.8929667 
 4797000    14.232269   -1.7405149   -9.8157253    2.8199308    3.2801205     1.975159 
 4798000     14.64999   -1.5725045   -9.6746334    3.2173532    3.0359401    1.8488356 
 4799000    14.739474   -1.2006228   -9.6125691    3.3582346    3.4088359    1.6448758 
 4800000     14.62684   -1.3394142   -9.8314506    2.9362767    3.6528471    1.9029126 
 4801000    13.803551    -1.968452   -9.6652531    3.0150317     2.783295    1.8984745 
 4802000    14.182868   -1.4624001   -9.8349671    3.4337338    3.3363648    1.6024684 
 4803000    13.779713   -2.0018996   -9.8670394    3.0656481    3.2620553    1.5374363 
 4804000    13.775259   -2.3640206   -9.8682643    2.7775916    3.3674122    1.3592398 
 4805000    13.919269   -2.1774953   -9.8271218    2.5111332    3.3650597    1.7734336 
 4806000    12.860793   -1.9094293    -9.833008    2.9477339    3.4169799    1.5588649 
 4807000      13.0663   -1.8367966   -9.8781063    2.7340564    3.5327435    1.7745097 
 4808000    12.966535   -2.1310421   -9.8661996     2.690995    3.3193184     1.724844 
 4809000    12.411001   -2.0453387   -9.7507922    3.0189966    3.0183457    1.6681112 
 4810000    13.006178   -1.8601916   -9.8290027    2.1573921    3.9155292    1.8958898 
 4811000    13.807411   -2.2534204   -9.7205175    2.9951204    2.9547769    1.5171998 
 4812000    14.080181   -2.1779187   -9.8394989    2.4024362    3.4369341      1.82221 
 4813000    15.352456   -2.0764135   -9.8382549    2.9421208    3.2652443    1.5544763 
 4814000    14.993822   -1.5397802   -9.7364304    2.8585228    3.3532943    1.9848331 
 4815000    14.281988   -1.6431839   -9.7835796    2.7340043    3.6992469    1.7071444 
 4816000    13.831733   -1.6320711   -9.8094341     2.822506    3.7078241    1.6470329 
 4817000    14.647199   -2.3814349   -9.7863751    2.5460886    3.2539075    1.6049441 
 4818000    14.625012   -2.2812188   -9.7936191    2.4705639    3.0372531    2.0045833 
 4819000    13.650144   -1.3694331   -9.8805398    3.0627036    3.3543379    2.0940652 
 4820000    13.524976   -1.6664587   -9.6547527    2.6685428    3.5137694    1.8059819 
 4821000    13.321967   -2.1061939   -9.7527348    2.5459977    3.1698172    1.9307259 
 4822000    13.940205   -2.1483612   -9.7658312    2.8981018    3.0036479    1.7157203 
 4823000    14.519436   -2.0727718   -9.6218646     2.372287    3.5382366    1.6385692 
 4824000    15.228364   -2.0819028    -9.843697    2.3970612    3.5365769    1.8281562 
 4825000    14.695758    -1.595302   -9.6012136    2.5336184    3.5726213    1.8996718 
 4826000    14.770295   -1.7239893    -9.745708    3.0037341     3.219546    1.7984387 
 4827000    14.203197   -1.2443796    -9.632626    2.6999878    3.6003518    2.0879068 
 4828000    14.526724   -1.3968082   -9.6620341    2.9065175    3.5370994    1.8216091 
 4829000    13.701968  -0.86258604   -9.5341688    2.9768458    3.8048823    1.8898546 
 4830000    13.452832   -1.3951587   -9.7801137    2.7973354    3.7830078    1.8046117 
 4831000    14.686439   -1.9869154   -9.7474363    2.9105731    3.2915322    1.5584155 
 4832000    14.351693   -1.6588741   -9.8590672    3.0394288    3.4877718    1.6729924 
 4833000    16.048232   -2.0698667   -9.8778461    2.9251224     2.978762     1.904095 
 4834000    14.063781   -1.1151618   -9.8298405    2.9831642    3.8584553    1.8730591 
 4835000    14.191459   -1.5864456   -9.7821159    2.9563725     2.982361    2.2569368 
 4836000    13.762275   -1.9704765   -9.9563806    2.5781688    3.5514683     1.856267 
 4837000    12.624413   -1.6854632   -9.7851254    2.7700669    3.6984794     1.631116 
 4838000    14.794309   -1.2854828   -9.8904972    3.2978186    3.3719708    1.9352249 
 4839000    13.525134   -1.0763178   -9.7125212    3.0999961    3.7065253    1.8296819 
 4840000    14.512959   -1.3714212   -9.7428235    2.4691065    3.7638902    2.1384056 
 4841000    15.287351  -0.85215015   -9.9303351    3.5544602    3.3960486    2.1276761 
 4842000    14.459257   -1.0695636   -9.8605086    3.2532262    3.3053164    2.2324024 
 4843000    15.430988   -1.1610872   -9.8364329    2.9878847    3.8520559    1.8354051 
 4844000    15.962222   -1.2191113   -9.8393099    2.9311208    3.8344345    1.8546433 
 4845000    14.359582  -0.88171877   -9.6707369    2.8808974    3.8628873    2.0452335 
 4846000    14.554933   -1.0271452   -9.7478456    2.5817606    3.8120442    2.3268956 
 4847000    15.032845  -0.62386503   -9.7431183    2.7855289    4.1977722    2.1359523 
 4848000     13.03132   -1.1541873    -9.833924    2.9201116    3.9247421     1.834883 
 4849000    14.498304   -2.0230988   -10.005993    2.8798106    3.5189083    1.5841753 
 4850000    14.580107   -1.6389246   -9.7623574    2.6318454    3.5538437    1.9377437 
 4851000    15.805985   -2.7481294   -9.7781076    2.2042111     3.117192    1.7085751 
 4852000     13.79866  -0.99773609   -9.7283064    2.8720133    3.6796886    2.1788683 
 4853000    14.074193  -0.98781546   -9.7383932    3.0014593    3.7154132    2.0337053 
 4854000    13.583996   -1.7591375    -9.817091    2.8537668    3.3994914    1.8046952 
 4855000    13.876356   -1.4663758   -9.7538771    2.9632154    3.5197318    1.8045541 
 4856000    14.034597   -1.6553489   -9.7492522    2.7563009    3.4341584    1.9034439 
 4857000    14.007669   -1.5225937   -9.8068638     2.675258    3.5973337    2.0116785 
 4858000    13.261737    -1.705252   -9.9740558    3.1353754    3.4680773    1.6653512 
 4859000     14.11204   -1.5251486   -9.7711683    2.8563585    3.7170817    1.6725796 
 4860000    14.660333   -1.8392113    -9.726221    2.7894585     3.223476    1.8740752 
 4861000    14.413587   -1.8877004   -9.7889826    3.1772303    2.9484699     1.775582 
 4862000    13.485414   -2.1863573   -9.9288134    2.6388279    3.4639829    1.6396452 
 4863000    15.181484   -1.7944656   -9.6922372    2.8267791    3.0190424    2.0519501 
 4864000    13.767628   -1.3966156   -9.8717867     3.105808    3.5569092    1.8124539 
 4865000    14.461674   -2.1874958   -9.7858256    2.7760649    3.2209556    1.6013093 
 4866000    15.180725   -1.3612434   -9.8102489    2.8595565    3.6967785    1.8926705 
 4867000    13.007086  -0.80497261   -9.7167072    3.3384548    3.5373999    2.0358799 
 4868000    15.098791   -1.9592226   -9.8252588     2.228947    3.6213522     2.015737 
 4869000    13.649889   -1.0933258   -9.8164633    2.9665685    3.7799168    1.9766521 
 4870000    14.434372   -1.9491723   -9.8036094    2.8771595    3.3166129    1.6606646 
 4871000    14.656804   -1.0483159   -9.7364283     2.900871    3.8819613    1.9052801 
 4872000    14.866522   -1.0308136   -9.5722594    2.8240031     3.784452    1.9329907 
 4873000    14.280211   -1.4205627    -9.782905    2.8795574    3.4258221    2.0569628 
 4874000     13.99372   -1.6303954   -9.8086973    2.6638243    3.4652167    2.0492608 
 4875000    13.559464   -1.7805098   -9.6754214    2.7864009    3.3814322    1.7270784 
 4876000     13.39883   -1.7295526   -9.7671987    2.9572989    3.5780914    1.5022559 
 4877000    13.917936   -1.5708264   -9.7513382    2.7959096    3.7906325    1.5939697 
 4878000    13.257426   -0.6284904   -9.6562542    3.3857911    3.6216705    2.0203022 
 4879000     15.54483   -1.6376688   -9.8732067    3.1570744    3.1062485     1.972215 
 4880000    12.395137  -0.99549623   -9.7292083     3.584552    3.3797564    1.7694037 
 4881000    14.103837   -2.0857073   -9.7732423    3.1491616     2.930275    1.6080984 
 4882000    14.137578   -1.6617507   -9.6676693    3.2944078    3.3564192    1.3550916 
 4883000     15.05618   -1.9829322   -9.7860905     2.868091    3.5331583     1.401909 
 4884000    13.702161  -0.89061539   -9.7868989    3.0917401    3.5085811    2.2959623 
 4885000    13.882942   -1.4914449   -9.4247083    2.6664091    3.5420145    1.7248399 
 4886000    13.284957   -1.7943273   -9.7730584    3.2854308    3.2191049    1.4741954 
 4887000    12.610435   -1.6185412   -9.7739662    3.2682117    3.3386973    1.5485161 
 4888000    13.532147   -1.9479386   -9.7945941    2.7644449    3.4005839    1.6816267 
 4889000    14.023751   -1.4897296   -9.7065354    3.0601009     3.365316     1.791389 
 4890000    13.412557   -1.1248492   -9.7168384    3.2278235    3.8092784    1.5548873 
 4891000    14.327779   -1.5209513   -9.8127879     3.293691    3.3494281    1.6487175 
 4892000     13.75302   -1.2366919   -9.8099071    3.2608018    3.5779258    1.7344876 
 4893000    13.106589  -0.82450134   -9.6503161    3.2790722    3.4414892    2.1052534 
 4894000    15.012961   -1.9401777   -9.7214626    2.5607133    3.6383997    1.5821719 
 4895000    13.901058   -1.2633648   -9.7126233    3.0645473    3.6691687    1.7155425 
 4896000    14.337635  -0.57575947   -9.5881974    3.0188893    3.6032913    2.3902573 
 4897000    14.392185   -1.1720669   -9.7086673    2.9436291     3.725563    1.8674083 
 4898000    16.144245  -0.97316143    -9.785961    2.9923174    3.7733931    2.0470891 
 4899000     15.10089   -1.7502651   -9.6771696    2.5885973    3.4737513    1.8645559 
 4900000    13.246281   -1.1037769   -9.8093965    3.0617969    3.5671981    2.0766246 
 4901000    14.979313   -1.2952627     -9.76938    2.9338817    3.7378319    1.8024038 
 4902000    14.899471    -1.883101   -9.8083433    3.0493061    3.2997085    1.5762277 
 4903000    14.184669   -1.7453119   -9.8597362    2.6873779    3.4975067    1.9295397 
 4904000    13.119262   -1.4985813   -9.8777783     3.191196    3.3700294    1.8179717 
 4905000    13.517892   -1.9317571   -9.6534203    3.5129284      2.67243    1.5363048 
 4906000     12.51697   -1.4621914   -9.6344723    2.9372846      3.56978    1.6652163 
 4907000    14.879515   -1.6533964   -9.6373047      3.20859    3.2457091    1.5296091 
 4908000    14.222614   -1.5108046   -9.5552842    2.9712863    3.5579529    1.5152403 
 4909000    13.681877   -1.8533156   -9.6758874    2.7035384     3.561335    1.5576984 
 4910000    14.917226   -1.4651293   -9.7341539    3.1910748    3.5035501    1.5743997 
 4911000    15.291413   -1.6488466   -9.6694693    3.1417571     3.444107    1.4347586 
 4912000    14.439213  -0.84414538   -9.7755546    3.5506037    3.2429267    2.1378789 
 4913000    13.760454   -1.1760843   -9.7563441    2.7005266    3.9089153    1.9708178 
 4914000    14.510152   -1.9418696   -9.8887765    2.4570724    3.6860627    1.8037719 
 4915000     13.72371   -1.5595526   -9.5994934    2.7635242    3.8253238    1.4510928 
 4916000    14.076112   -1.9747975   -9.6624674     2.639851     3.315977    1.7318418 
 4917000    14.030111   -2.3724466   -9.6023431    2.4247268     3.219877    1.5852927 
 4918000    15.194639   -2.3909959   -9.8643022    2.8508558    2.7797795    1.8426712 
 4919000    14.204305   -1.5107904   -9.6578631    2.8439769    3.5511927    1.7519031 
 4920000    14.065803   -1.3536249    -9.428509    3.1783571    3.2800595    1.6164674 
 4921000    14.254139   -1.4940108   -9.7491047    3.0155056    3.4861507    1.7534375 
 4922000    14.353389   -1.7664369   -9.7603411    3.2412378       2.7884    1.9642665 
 4923000    14.520672   -1.0711903   -9.6426975     2.798056    3.7642657    2.0091856 
 4924000    15.833044   -1.3331401   -9.6902939    2.7713965    3.5855068    2.0002505 
 4925000    13.293219   -1.2545348   -9.7567934    2.6638196    3.5619851    2.2764538 
 4926000    14.596678   -1.3922324   -9.7572791    2.5785585    3.6496874    2.1368007 
 4927000    14.052245  -0.57957675   -9.8019892    3.1319909    3.7585225    2.3318991 
 4928000    14.667015   -1.1404278   -9.8037142    2.5120588    3.9233974    2.2278301 
 4929000    15.626039   -1.6906536   -9.8073702    2.4756998    3.6797555    1.9612613 
 4930000    15.988621   -1.5386685   -9.8923706    2.6168635    3.2947762    2.4420624 
 4931000    16.108682   -1.7458771   -9.8923659    2.5337746    3.5504473    2.0622668 
 4932000    13.042906    -1.465885   -9.8433821     2.954481    3.5587027    1.8643134 
 4933000    13.322976   -2.2902638   -9.7876231    2.9308249    3.2170863    1.3494482 
 4934000    14.176696   -1.9391713   -9.8766244    3.0138316    3.1245716      1.79905 
 4935000    14.800114   -2.1202268   -9.8724974    2.6265904    3.3992693    1.7264109 
 4936000    13.795552   -1.5688137   -9.8087187    3.4994833    2.8898994    1.8505223 
 4937000    14.594206   -1.4038402   -9.8254068    3.0827999    3.1759506    2.1628161 
 4938000    13.988362  -0.38446917   -9.6486569    3.3935632    3.8354985    2.0351261 
 4939000    13.640777  -0.57950067   -9.7533104    3.1929656    4.0741861     1.906658 
 4940000    13.148439   -1.9435348   -9.7358051    2.8858889    3.2185593    1.6878222 
 4941000    13.429529   -1.4261221   -9.8041759    2.9476533    3.4748034    1.9555971 
 4942000    14.942775    -1.897947   -9.8906549    2.4986938    3.2779099    2.2161042 
 4943000    13.685614  -0.72012214   -9.6207661    2.8435327     4.009684    2.0474273 
 4944000    14.499686   -1.9571361   -9.9224818    2.5452868    3.3819714    2.0380875 
 4945000    13.296646   -1.2804715   -9.7616013    2.7562607    3.7936008    1.9312684 
 4946000    14.465417   -1.9258277   -9.8593588    2.7282897    3.7556771    1.4495643 
 4947000    14.577655   -1.6239154   -9.8569928    2.6669094    3.5523684    2.0137996 
 4948000      14.7194   -1.9210286   -9.8372453    2.5831803    3.4339929    1.8990434 
 4949000    15.106096   -1.8699274   -9.7174972    2.7024695    2.9288903    2.2162099 
 4950000    13.906701   -1.7620443   -9.8231872    2.6094472    3.4994591    1.9522366 
 4951000    14.009606   -2.8662791   -9.8616382    2.4602138     2.973199    1.5619463 
 4952000    14.322109   -2.5563844   -9.7550599    2.3635757    3.2629465    1.5721533 
 4953000    14.030966   -2.2365101   -9.6486385     2.285732    3.3488153    1.7775811 
 4954000     12.66916    -1.925978   -9.8092835    2.6866231    3.3589902    1.8376922 
 4955000    12.872806   -2.3064296   -9.6591784    2.6390096    3.1209173     1.592822 
 4956000     14.04591   -2.1756404   -9.5169005    2.4604656    3.1338537    1.7469409 
 4957000    13.505585   -1.7295122   -9.8541418    3.0742072    3.1412312    1.9091912 
 4958000    14.393132   -2.4379288   -9.7103262    3.0705368    2.7636733    1.4381874 
 4959000    13.021288   -1.7754852   -9.7113244    2.9704113    3.0946701    1.8707579 
 4960000    14.394742   -2.0409795    -9.804328    3.1264409     2.979999    1.6569086 
 4961000     12.81713   -1.6007649   -9.6285108    3.0915401    3.4216475    1.5145584 
 4962000    13.551134   -2.2822302   -9.6626936    2.5769396    3.1177863    1.6857375 
 4963000    13.889972   -2.0028707   -9.6395318    2.6398348    3.3019697    1.6948565 
 4964000    12.618863   -1.1846449   -9.5610801      2.84754    3.6373239    1.8915713 
 4965000    13.312479    -0.869097   -9.6536562    3.1027069    3.3454195    2.3364328 
 4966000     14.55764   -1.4524497   -9.7528809    2.7709774    3.7066041    1.8228497 
 4967000    13.303156   -1.4175165   -9.7469715    2.6925077    3.3466473       2.2903 
 4968000    13.935826   -2.1529812   -9.8440653    2.8680089    2.8441928    1.9788825 
 4969000    13.349881   -1.3226651   -9.7681828     2.751452    3.5739389    2.1201268 
 4970000    14.088165   -1.2283627   -9.6205201    2.9296807    3.2482939    2.2141828 
 4971000    14.254213   -2.0924654   -9.6602881    2.9664509    2.5548376    2.0465342 
 4972000    13.341898   -1.5167124   -9.7528392    3.1349898    3.0813676    2.0197695 
 4973000    15.469151   -2.1174005   -9.8113342    2.8057198    3.3954545    1.4927595 
 4974000    15.125357   -1.9779813   -9.9084364    2.6161452    3.5863491    1.7279608 
 4975000    13.863678   -1.1733676   -9.6505474    2.8474913    3.8586469    1.7710417 
 4976000    14.085654   -1.7819206   -9.7744047    2.7142062    3.2307067    2.0475712 
 4977000    15.820511   -1.7697967   -9.7742923    2.7177017    3.3241133    1.9626806 
 4978000    13.204143   -1.0474522   -9.8171617    3.7416047    3.1218745    1.9062302 
 4979000    13.563168   -1.8557631   -9.7053499     2.812956    3.2901596    1.7464711 
 4980000    14.095198   -1.7629085   -9.7077022    2.6031672    3.6253756    1.7162509 
 4981000    12.570076  -0.79668184   -9.6778295     3.418249    3.5850364    1.8778623 
 4982000    13.984651   -1.2420886   -9.7741604    2.7710646    3.7223901    2.0386171 
 4983000    15.093056    -2.104571   -9.6883933     2.558201     3.151196    1.8744254 
 4984000    14.315761   -1.5804637   -9.5546579    3.0725268    3.1458839    1.7557835 
 4985000    14.056231   -1.1834109    -9.782169    3.0927383    3.5282185    1.9778014 
 4986000    13.220156   -1.9069307   -9.6720645    2.8666756    3.2431083    1.6553499 
 4987000    13.840479   -1.9042811   -9.8929971    2.9198977    3.1033412    1.9654772 
 4988000    14.102835   -2.2121202    -9.731021    2.8376187    2.8861433    1.7951389 
 4989000     12.88611   -1.8487861   -9.7945488    3.1416469    2.9637969    1.8403189 
 4990000    13.409947   -2.4332701   -9.8307795    2.9476886    2.7849093    1.6649115 
 4991000     13.74382   -2.1812198   -9.8850571    2.9968936    3.0622115    1.6447322 
 4992000    15.093546   -2.4339697   -9.7720032    2.8453703      2.96309    1.5295732 
 4993000    14.349076   -1.5637363   -9.6158074    3.0598201    3.6200142    1.3722369 
 4994000    13.851351   -1.8787327   -9.6330102    2.8864575    2.9456271    1.9221928 
 4995000    14.745095  -0.96812681   -9.6140377    2.9980294    3.6794977    1.9683838 
 4996000    13.725011  -0.75813188   -9.6786546    3.2695556     3.694321    1.9566461 
 4997000     15.22067   -1.7394713   -9.6860662    2.8468051    3.4561613    1.6436285 
 4998000    13.807043   -1.4412628   -9.7218489    2.7736745    3.4777482    2.0291633 
 4999000    13.681618   -1.3836282   -9.7478956    3.0726439    3.3912268    1.9003967 
 5000000    13.106184   -1.5630605   -9.8388406    3.1133405    3.4084693    1.7539702 
Loop time of 655.182 on 4 procs for 5000000 steps with 208 atoms

Performance: 329.679 ns/day, 0.073 hours/ns, 7631.465 timesteps/s
101.6% CPU use with 4 MPI tasks x no OpenMP threads

MPI task timing breakdown:
Section |  min time  |  avg time  |  max time  |%varavg| %total
---------------------------------------------------------------
Pair    | 320.33     | 348.83     | 387.87     | 151.4 | 53.24
Bond    | 75.815     | 95.642     | 118.29     | 158.6 | 14.60
Neigh   | 0.96255    | 0.96978    | 0.98383    |   0.9 |  0.15
Comm    | 106.5      | 168.35     | 208.06     | 297.2 | 25.70
Output  | 0.27104    | 0.34991    | 0.58286    |  22.7 |  0.05
Modify  | 26.347     | 34.213     | 40.146     |  91.8 |  5.22
Other   |            | 6.82       |            |       |  1.04

Nlocal:    52 ave 53 max 51 min
Histogram: 2 0 0 0 0 0 0 0 0 2
Nghost:    156 ave 157 max 155 min
Histogram: 2 0 0 0 0 0 0 0 0 2
Neighs:    4931.75 ave 5073 max 4812 min
Histogram: 1 0 1 0 0 1 0 0 0 1

Total # of neighbors = 19727
Ave neighs/atom = 94.8413
Ave special neighs/atom = 8.21154
Neighbor list builds = 5600
Dangerous builds = 0
clear

next t
next a
jump SELF loopstart
# set logfile
log		log.run.$t
log		log.run.18
