
# Box and units  (use LJ units and periodic boundaries)
units		real
# so:
#    mass = grams/mole		# same in gromacs
#    distance = Angstroms	# nm in gromacs
#    time = femtoseconds	# ps in gromacs
#    energy = Kcal/mole		# kcal/mol in gromacs
#    velocity = Angstroms/femtosecond	# ...
#    force = Kcal/mole-Angstrom	# ...
#    temperature = Kelvin	# same in gromacs
#    pressure = atmospheres	# same in gromacs
#    dynamic viscosity = Poise	# no idea
dimension	3
atom_style	molecular
boundary	p p p


# Pair interactions require lists of neighbours to be calculated
neighbor	5.0 nsq
neigh_modify	every 1 delay 10 check yes

# define interactions
pair_style	lj12106/cut  30.0 # same as in md_sample.mdp from the smog-model web-tool
pair_modify	shift yes
bond_style	harmonic
angle_style	harmonic
dihedral_style	charmm
special_bonds	lj 0.0 0.0 0.0 angle yes dihedral yes # 3 exclusions

# READ "start" data file
read_data ../../protein/cystatin/3GAX/7-aNewCoarsegrained/data.input
  orthogonal box = (-200 -200 -200) to (200 200 200)
  1 by 2 by 2 MPI processor grid
  reading atoms ...
  208 atoms
  scanning bonds ...
  3 = max bonds/atom
  scanning angles ...
  3 = max angles/atom
  scanning dihedrals ...
  8 = max dihedrals/atom
  reading bonds ...
  209 bonds
  reading angles ...
  306 angles
  reading dihedrals ...
  708 dihedrals
  4 = max # of 1-2 neighbors
  7 = max # of 1-3 neighbors
  15 = max # of 1-4 neighbors
  632 = # of 1-3 neighbors before angle trim
  612 = # of 1-3 neighbors after angle trim
  1165 = # of 1-4 neighbors before dihedral trim
  708 = # of 1-4 neighbors after dihedral trim
  12 = max # of special neighbors

# define coeffs
include ../../protein/cystatin/3GAX/7-aNewCoarsegrained/settings.param
pair_coeff 1 1 0.000000e+00 0.000000e+00 4.009755e+04 # CA1-CA1 type=non-native eps=0.002390 sigma=4.000000
pair_coeff 1 2 -7.705603e+02 0.000000e+00 1.242182e+06 # CA1-CA2 type=native eps=0.119500 sigma=3.843570
pair_coeff 1 3 -9.297010e+02 0.000000e+00 1.808251e+06 # CA1-SC2 type=native eps=0.119500 sigma=3.965740
pair_coeff 1 4 -1.512188e+04 0.000000e+00 5.979899e+08 # CA1-CA3 type=native eps=0.095600 sigma=6.551685
pair_coeff 1 5 -8.460246e+04 0.000000e+00 1.247834e+10 # CA1-SC3 type=native eps=0.143400 sigma=8.158944
pair_coeff 1 6 -3.163870e+05 0.000000e+00 1.570618e+11 # CA1-CA4 type=native eps=0.159333 sigma=9.988041
pair_coeff 1 7 -2.450490e+05 0.000000e+00 1.884383e+11 # CA1-SC4 type=native eps=0.079667 sigma=10.743795
pair_coeff 1 8 -1.357535e+06 0.000000e+00 2.570294e+12 # CA1-CA5 type=native eps=0.179250 sigma=12.484667
pair_coeff 1 9 -3.855445e+05 0.000000e+00 6.219438e+11 # CA1-SC5 type=native eps=0.059750 sigma=12.155825
pair_coeff 1 10 -8.404397e+06 0.000000e+00 7.388483e+13 # CA1-CA6 type=native eps=0.239000 sigma=16.125497
pair_coeff 1 11 0.000000e+00 0.000000e+00 1.085818e+04 # CA1-SC6 type=non-native eps=0.002390 sigma=3.587401
pair_coeff 1 12 -1.114102e+07 0.000000e+00 2.596701e+14 # CA1-CA7 type=native eps=0.119500 sigma=18.970896
pair_coeff 1 13 -1.698875e+07 0.000000e+00 6.038028e+14 # CA1-SC7 type=native eps=0.119500 sigma=20.352945
pair_coeff 1 14 -3.651625e+07 0.000000e+00 1.394808e+15 # CA1-CA8 type=native eps=0.239000 sigma=20.598853
pair_coeff 1 15 0.000000e+00 0.000000e+00 6.317440e+04 # CA1-SC8 type=non-native eps=0.002390 sigma=4.154435
pair_coeff 1 16 -6.293775e+06 0.000000e+00 1.243042e+14 # CA1-CA9 type=native eps=0.079667 sigma=18.454435
pair_coeff 1 17 -3.907556e+06 0.000000e+00 2.395762e+13 # CA1-SC9 type=native eps=0.159333 sigma=15.185465
pair_coeff 1 18 -1.774906e+07 0.000000e+00 6.590565e+14 # CA1-CA10 type=native eps=0.119500 sigma=20.502000
pair_coeff 1 19 -2.769455e+07 0.000000e+00 1.604578e+15 # CA1-SC10 type=native eps=0.119500 sigma=22.080017
pair_coeff 1 20 -1.501070e+07 0.000000e+00 2.356915e+14 # CA1-CA11 type=native eps=0.239000 sigma=17.762149
pair_coeff 1 21 -6.366577e+06 0.000000e+00 7.066475e+13 # CA1-CA12 type=native eps=0.143400 sigma=16.764392
pair_coeff 1 22 -3.008667e+06 0.000000e+00 2.367175e+13 # CA1-SC12 type=native eps=0.095600 sigma=15.830004
pair_coeff 1 23 -3.575635e+07 0.000000e+00 1.337360e+15 # CA1-CA13 type=native eps=0.239000 sigma=20.526782
pair_coeff 1 24 0.000000e+00 0.000000e+00 1.293687e+05 # CA1-SC13 type=non-native eps=0.002390 sigma=4.410142
pair_coeff 1 25 -1.366155e+07 0.000000e+00 5.856835e+14 # CA1-CA14 type=native eps=0.079667 sigma=20.999012
pair_coeff 1 26 -5.929064e+07 0.000000e+00 5.515764e+15 # CA1-SC14 type=native eps=0.159333 sigma=23.893233
pair_coeff 1 27 -1.221687e+07 0.000000e+00 2.341820e+14 # CA1-CA15 type=native eps=0.159333 sigma=18.362730
pair_coeff 1 28 -3.671344e+06 0.000000e+00 4.229739e+13 # CA1-SC15 type=native eps=0.079667 sigma=16.868886
pair_coeff 1 29 -1.189860e+07 0.000000e+00 3.702319e+14 # CA1-CA16 type=native eps=0.095600 sigma=19.906794
pair_coeff 1 30 -2.268682e+07 0.000000e+00 8.973010e+14 # CA1-SC16 type=native eps=0.143400 sigma=20.718855
pair_coeff 1 31 -3.958747e+07 0.000000e+00 3.278593e+15 # CA1-CA17 type=native eps=0.119500 sigma=23.434731
pair_coeff 1 32 -6.627091e+07 0.000000e+00 9.187935e+15 # CA1-SC17 type=native eps=0.119500 sigma=25.536076
pair_coeff 1 33 -9.260876e+06 0.000000e+00 6.279778e+14 # CA1-CA18 type=native eps=0.034143 sigma=22.666634
pair_coeff 1 34 -4.179269e+07 0.000000e+00 2.131521e+15 # CA1-SC18 type=native eps=0.204857 sigma=21.615728
pair_coeff 1 35 -3.300542e+07 0.000000e+00 1.519328e+15 # CA1-CA19 type=native eps=0.179250 sigma=21.249532
pair_coeff 1 36 -7.586071e+06 0.000000e+00 2.407886e+14 # CA1-SC19 type=native eps=0.059750 sigma=19.972917
pair_coeff 1 37 -3.792383e+07 0.000000e+00 3.761028e+15 # CA1-CA20 type=native eps=0.095600 sigma=24.149273
pair_coeff 1 38 -6.262869e+07 0.000000e+00 6.838133e+15 # CA1-SC20 type=native eps=0.143400 sigma=24.539499
pair_coeff 1 39 -1.645308e+08 0.000000e+00 2.831631e+16 # CA1-CA21 type=native eps=0.239000 sigma=26.473004
pair_coeff 1 40 -4.325208e+07 0.000000e+00 5.870530e+15 # CA1-CA22 type=native eps=0.079667 sigma=25.445836
pair_coeff 1 41 -7.660248e+07 0.000000e+00 9.207019e+15 # CA1-SC22 type=native eps=0.159333 sigma=24.935478
pair_coeff 1 42 -4.752070e+07 0.000000e+00 7.086454e+15 # CA1-CA23 type=native eps=0.079667 sigma=25.848144
pair_coeff 1 43 -1.132306e+08 0.000000e+00 2.011689e+16 # CA1-SC23 type=native eps=0.159333 sigma=26.613654
pair_coeff 1 44 -1.226562e+08 0.000000e+00 3.934241e+16 # CA1-CA24 type=native eps=0.095600 sigma=29.367496
pair_coeff 1 45 -1.917971e+08 0.000000e+00 6.413202e+16 # CA1-SC24 type=native eps=0.143400 sigma=29.571758
pair_coeff 1 46 -3.726405e+08 0.000000e+00 1.452520e+17 # CA1-CA25 type=native eps=0.239000 sigma=30.337307
pair_coeff 1 47 0.000000e+00 0.000000e+00 6.317440e+04 # CA1-SC25 type=non-native eps=0.002390 sigma=4.154435
pair_coeff 1 48 0.000000e+00 0.000000e+00 4.009755e+04 # CA1-CA26 type=non-native eps=0.002390 sigma=4.000000
pair_coeff 1 49 0.000000e+00 0.000000e+00 3.442571e+03 # CA1-SC26 type=non-native eps=0.002390 sigma=3.259921
pair_coeff 1 50 -2.243899e+08 0.000000e+00 1.053365e+17 # CA1-CA27 type=native eps=0.119500 sigma=31.292067
pair_coeff 1 51 -2.322741e+08 0.000000e+00 1.128687e+17 # CA1-SC27 type=native eps=0.119500 sigma=31.472686
pair_coeff 1 52 0.000000e+00 0.000000e+00 4.009755e+04 # CA1-CA28 type=non-native eps=0.002390 sigma=4.000000
pair_coeff 1 53 0.000000e+00 0.000000e+00 4.009755e+04 # CA1-SC28 type=non-native eps=0.002390 sigma=4.000000
pair_coeff 1 54 -3.784337e+08 0.000000e+00 3.745086e+17 # CA1-CA29 type=native eps=0.095600 sigma=35.433740
pair_coeff 1 55 -5.154005e+08 0.000000e+00 4.631061e+17 # CA1-SC29 type=native eps=0.143400 sigma=34.868046
pair_coeff 1 56 -5.984279e+08 0.000000e+00 9.364955e+17 # CA1-CA30 type=native eps=0.095600 sigma=38.246114
pair_coeff 1 57 -1.473243e+09 0.000000e+00 3.783898e+18 # CA1-SC30 type=native eps=0.143400 sigma=41.538345
pair_coeff 1 58 -5.624528e+08 0.000000e+00 6.618266e+17 # CA1-CA31 type=native eps=0.119500 sigma=36.471030
pair_coeff 1 59 -9.550739e+08 0.000000e+00 1.908297e+18 # CA1-SC31 type=native eps=0.119500 sigma=39.835767
pair_coeff 1 60 -2.872588e+08 0.000000e+00 2.014029e+17 # CA1-CA32 type=native eps=0.102429 sigma=33.455720
pair_coeff 1 61 -2.934573e+08 0.000000e+00 1.576413e+17 # CA1-SC32 type=native eps=0.136571 sigma=32.003134
pair_coeff 1 62 -2.282432e+08 0.000000e+00 9.082108e+16 # CA1-CA33 type=native eps=0.143400 sigma=30.441763
pair_coeff 1 63 -1.446193e+08 0.000000e+00 5.469338e+16 # CA1-SC33 type=native eps=0.095600 sigma=30.184900
pair_coeff 1 64 -8.143585e+07 0.000000e+00 2.081108e+16 # CA1-CA34 type=native eps=0.079667 sigma=28.276013
pair_coeff 1 65 -2.801840e+08 0.000000e+00 1.231743e+17 # CA1-SC34 type=native eps=0.159333 sigma=30.951696
pair_coeff 1 66 -9.613957e+07 0.000000e+00 1.289096e+16 # CA1-CA35 type=native eps=0.179250 sigma=25.394256
pair_coeff 1 67 -2.327960e+07 0.000000e+00 2.267531e+15 # CA1-SC35 type=native eps=0.059750 sigma=24.076939
pair_coeff 1 68 -6.453197e+07 0.000000e+00 1.306812e+16 # CA1-CA36 type=native eps=0.079667 sigma=27.200573
pair_coeff 1 69 -1.717751e+08 0.000000e+00 4.629710e+16 # CA1-SC36 type=native eps=0.159333 sigma=28.527952
pair_coeff 1 70 -4.578683e+07 0.000000e+00 4.385844e+15 # CA1-CA37 type=native eps=0.119500 sigma=24.009905
pair_coeff 1 71 -4.298001e+07 0.000000e+00 3.864604e+15 # CA1-SC37 type=native eps=0.119500 sigma=23.758085
pair_coeff 1 72 -8.704802e+06 0.000000e+00 3.170443e+14 # CA1-CA38 type=native eps=0.059750 sigma=20.436123
pair_coeff 1 73 -2.120090e+07 0.000000e+00 6.268870e+14 # CA1-SC38 type=native eps=0.179250 sigma=19.738350
pair_coeff 1 74 -5.527970e+06 0.000000e+00 1.278596e+14 # CA1-CA39 type=native eps=0.059750 sigma=18.946673
pair_coeff 1 75 -2.003311e+07 0.000000e+00 5.597287e+14 # CA1-SC39 type=native eps=0.179250 sigma=19.552841
pair_coeff 1 76 -1.999236e+06 0.000000e+00 1.254272e+13 # CA1-CA40 type=native eps=0.079667 sigma=15.243789
pair_coeff 1 77 -9.248936e+05 0.000000e+00 1.342199e+12 # CA1-SC40 type=native eps=0.159333 sigma=11.943342
pair_coeff 1 78 -1.336872e+06 0.000000e+00 3.738970e+12 # CA1-CA41 type=native eps=0.119500 sigma=13.323408
pair_coeff 1 79 -2.000252e+06 0.000000e+00 8.370310e+12 # CA1-SC41 type=native eps=0.119500 sigma=14.248893
pair_coeff 1 80 -1.593516e+05 0.000000e+00 6.640414e+10 # CA1-CA42 type=native eps=0.095600 sigma=9.700887
pair_coeff 1 81 -1.208795e+05 0.000000e+00 2.547394e+10 # CA1-SC42 type=native eps=0.143400 sigma=8.658890
pair_coeff 1 82 -3.365084e+04 0.000000e+00 5.922484e+09 # CA1-CA43 type=native eps=0.047800 sigma=8.402780
pair_coeff 1 83 -7.165821e+05 0.000000e+00 6.714041e+11 # CA1-SC43 type=native eps=0.191200 sigma=11.103452
pair_coeff 1 84 -1.296119e+04 0.000000e+00 4.393107e+08 # CA1-CA44 type=native eps=0.095600 sigma=6.385469
pair_coeff 1 85 -1.691210e+03 0.000000e+00 4.986385e+06 # CA1-SC44 type=native eps=0.143400 sigma=4.250464
pair_coeff 1 86 -5.114270e+04 0.000000e+00 1.094383e+10 # CA1-CA45 type=native eps=0.059750 sigma=8.680991
pair_coeff 1 87 -3.020365e+05 0.000000e+00 1.272330e+11 # CA1-SC45 type=native eps=0.179250 sigma=9.718406
pair_coeff 1 88 -2.303983e+05 0.000000e+00 1.110531e+11 # CA1-CA46 type=native eps=0.119500 sigma=9.939096
pair_coeff 1 89 -1.819371e+05 0.000000e+00 6.924922e+10 # CA1-SC46 type=native eps=0.119500 sigma=9.555511
pair_coeff 1 90 -1.596577e+06 0.000000e+00 5.332755e+12 # CA1-CA47 type=native eps=0.119500 sigma=13.723513
pair_coeff 1 91 -2.268119e+06 0.000000e+00 1.076226e+13 # CA1-SC47 type=native eps=0.119500 sigma=14.550502
pair_coeff 1 92 -3.539787e+06 0.000000e+00 1.310679e+13 # CA1-CA48 type=native eps=0.239000 sigma=13.961268
pair_coeff 1 93 -6.410722e+05 0.000000e+00 8.597774e+11 # CA1-CA49 type=native eps=0.119500 sigma=11.787404
pair_coeff 1 94 -8.108391e+05 0.000000e+00 1.375440e+12 # CA1-SC49 type=native eps=0.119500 sigma=12.258090
pair_coeff 1 95 -2.060193e+05 0.000000e+00 1.331923e+11 # CA1-CA50 type=native eps=0.079667 sigma=10.437589
pair_coeff 1 96 -3.279418e+05 0.000000e+00 1.687435e+11 # CA1-SC50 type=native eps=0.159333 sigma=10.047932
pair_coeff 1 97 -3.718764e+05 0.000000e+00 4.339708e+11 # CA1-CA51 type=native eps=0.079667 sigma=11.517246
pair_coeff 1 98 -2.069244e+06 0.000000e+00 6.718258e+12 # CA1-SC51 type=native eps=0.159333 sigma=13.658799
pair_coeff 1 99 -3.271579e+05 0.000000e+00 3.358754e+11 # CA1-CA52 type=native eps=0.079667 sigma=11.273925
pair_coeff 1 100 -1.220047e+05 0.000000e+00 2.335537e+10 # CA1-SC52 type=native eps=0.159333 sigma=8.521316
pair_coeff 1 101 -1.820267e+06 0.000000e+00 8.664680e+12 # CA1-CA53 type=native eps=0.095600 sigma=14.558207
pair_coeff 1 102 -3.874571e+06 0.000000e+00 2.617207e+13 # CA1-SC53 type=native eps=0.143400 sigma=15.432658
pair_coeff 1 103 -2.518649e+06 0.000000e+00 2.654224e+13 # CA1-CA54 type=native eps=0.059750 sigma=16.620087
pair_coeff 1 104 -4.083930e+06 0.000000e+00 2.326149e+13 # CA1-SC54 type=native eps=0.179250 sigma=15.000240
pair_coeff 1 105 -1.599619e+07 0.000000e+00 5.353099e+14 # CA1-CA55 type=native eps=0.119500 sigma=20.149756
pair_coeff 1 106 -1.631150e+07 0.000000e+00 5.566213e+14 # CA1-SC55 type=native eps=0.119500 sigma=20.215415
pair_coeff 1 107 -1.661824e+07 0.000000e+00 1.444382e+15 # CA1-CA56 type=native eps=0.047800 sigma=23.624059
pair_coeff 1 108 -8.068396e+07 0.000000e+00 8.511901e+15 # CA1-SC56 type=native eps=0.191200 sigma=24.399348
pair_coeff 1 109 -6.075288e+07 0.000000e+00 9.651969e+15 # CA1-CA57 type=native eps=0.095600 sigma=26.122406
pair_coeff 1 110 -7.091966e+07 0.000000e+00 8.768477e+15 # CA1-SC57 type=native eps=0.143400 sigma=25.053280
pair_coeff 1 111 -3.380712e+08 0.000000e+00 1.195524e+17 # CA1-CA58 type=native eps=0.239000 sigma=29.849017
pair_coeff 1 112 -2.007225e+08 0.000000e+00 1.264316e+17 # CA1-CA59 type=native eps=0.079667 sigma=32.863584
pair_coeff 1 113 -6.114262e+08 0.000000e+00 5.865722e+17 # CA1-SC59 type=native eps=0.159333 sigma=35.250713
pair_coeff 1 114 -3.594491e+08 0.000000e+00 3.378756e+17 # CA1-CA60 type=native eps=0.095600 sigma=35.131086
pair_coeff 1 115 -4.753048e+08 0.000000e+00 3.938541e+17 # CA1-SC60 type=native eps=0.143400 sigma=34.400560
pair_coeff 1 116 -9.885996e+08 0.000000e+00 1.703851e+18 # CA1-CA61 type=native eps=0.143400 sigma=38.866331
pair_coeff 1 117 -7.524414e+08 0.000000e+00 1.480565e+18 # CA1-SC61 type=native eps=0.095600 sigma=39.734169
pair_coeff 1 118 -8.145312e+08 0.000000e+00 1.387994e+18 # CA1-CA62 type=native eps=0.119500 sigma=38.792845
pair_coeff 1 119 -6.298130e+08 0.000000e+00 8.298419e+17 # CA1-SC62 type=native eps=0.119500 sigma=37.165127
pair_coeff 1 120 0.000000e+00 0.000000e+00 4.009755e+04 # CA1-CA63 type=non-native eps=0.002390 sigma=4.000000
pair_coeff 1 121 0.000000e+00 0.000000e+00 2.286802e+04 # CA1-SC63 type=non-native eps=0.002390 sigma=3.817121
pair_coeff 1 122 0.000000e+00 0.000000e+00 4.009755e+04 # CA1-CA64 type=non-native eps=0.002390 sigma=4.000000
pair_coeff 1 123 0.000000e+00 0.000000e+00 6.317440e+04 # CA1-SC64 type=non-native eps=0.002390 sigma=4.154435
pair_coeff 1 124 0.000000e+00 0.000000e+00 4.009755e+04 # CA1-CA65 type=non-native eps=0.002390 sigma=4.000000
pair_coeff 1 125 0.000000e+00 0.000000e+00 2.286802e+04 # CA1-SC65 type=non-native eps=0.002390 sigma=3.817121
pair_coeff 1 126 0.000000e+00 0.000000e+00 4.009755e+04 # CA1-CA66 type=non-native eps=0.002390 sigma=4.000000
pair_coeff 1 127 0.000000e+00 0.000000e+00 9.272377e+04 # CA1-SC66 type=non-native eps=0.002390 sigma=4.289428
pair_coeff 1 128 0.000000e+00 0.000000e+00 4.009755e+04 # CA1-CA67 type=non-native eps=0.002390 sigma=4.000000
pair_coeff 1 129 0.000000e+00 0.000000e+00 4.009755e+04 # CA1-SC67 type=non-native eps=0.002390 sigma=4.000000
pair_coeff 1 130 0.000000e+00 0.000000e+00 4.009755e+04 # CA1-CA68 type=non-native eps=0.002390 sigma=4.000000
pair_coeff 1 131 0.000000e+00 0.000000e+00 4.009755e+04 # CA1-SC68 type=non-native eps=0.002390 sigma=4.000000
pair_coeff 1 132 0.000000e+00 0.000000e+00 4.009755e+04 # CA1-CA69 type=non-native eps=0.002390 sigma=4.000000
pair_coeff 1 133 0.000000e+00 0.000000e+00 4.009755e+04 # CA1-SC69 type=non-native eps=0.002390 sigma=4.000000
pair_coeff 1 134 0.000000e+00 0.000000e+00 4.009755e+04 # CA1-CA70 type=non-native eps=0.002390 sigma=4.000000
pair_coeff 1 135 0.000000e+00 0.000000e+00 1.085818e+04 # CA1-SC70 type=non-native eps=0.002390 sigma=3.587401
pair_coeff 1 136 0.000000e+00 0.000000e+00 4.009755e+04 # CA1-CA71 type=non-native eps=0.002390 sigma=4.000000
pair_coeff 1 137 0.000000e+00 0.000000e+00 2.286802e+04 # CA1-SC71 type=non-native eps=0.002390 sigma=3.817121
pair_coeff 1 138 0.000000e+00 0.000000e+00 4.009755e+04 # CA1-CA72 type=non-native eps=0.002390 sigma=4.000000
pair_coeff 1 139 -4.710505e+08 0.000000e+00 2.321010e+17 # CA1-SC72 type=native eps=0.239000 sigma=31.545682
pair_coeff 1 140 -2.060873e+08 0.000000e+00 2.665605e+17 # CA1-CA73 type=native eps=0.039833 sigma=37.050644
pair_coeff 1 141 -1.253748e+09 0.000000e+00 1.973075e+18 # CA1-SC73 type=native eps=0.199167 sigma=38.281938
pair_coeff 1 142 -1.562129e+09 0.000000e+00 2.552560e+18 # CA1-CA74 type=native eps=0.239000 sigma=38.522533
pair_coeff 1 143 0.000000e+00 0.000000e+00 4.009755e+04 # CA1-SC74 type=non-native eps=0.002390 sigma=4.000000
pair_coeff 1 144 -1.833840e+09 0.000000e+00 3.517750e+18 # CA1-CA75 type=native eps=0.239000 sigma=39.566010
pair_coeff 1 145 0.000000e+00 0.000000e+00 6.317440e+04 # CA1-SC75 type=non-native eps=0.002390 sigma=4.154435
pair_coeff 1 146 -1.163610e+09 0.000000e+00 1.416306e+18 # CA1-CA76 type=native eps=0.239000 sigma=36.677237
pair_coeff 1 147 0.000000e+00 0.000000e+00 2.286802e+04 # CA1-SC76 type=non-native eps=0.002390 sigma=3.817121
pair_coeff 1 148 0.000000e+00 0.000000e+00 4.009755e+04 # CA1-CA77 type=non-native eps=0.002390 sigma=4.000000
pair_coeff 1 149 0.000000e+00 0.000000e+00 9.272377e+04 # CA1-SC77 type=non-native eps=0.002390 sigma=4.289428
pair_coeff 1 150 0.000000e+00 0.000000e+00 4.009755e+04 # CA1-CA78 type=non-native eps=0.002390 sigma=4.000000
pair_coeff 1 151 0.000000e+00 0.000000e+00 4.009755e+04 # CA1-SC78 type=non-native eps=0.002390 sigma=4.000000
pair_coeff 1 152 0.000000e+00 0.000000e+00 4.009755e+04 # CA1-CA79 type=non-native eps=0.002390 sigma=4.000000
pair_coeff 1 153 0.000000e+00 0.000000e+00 6.317440e+04 # CA1-SC79 type=non-native eps=0.002390 sigma=4.154435
pair_coeff 1 154 -2.970911e+08 0.000000e+00 1.846508e+17 # CA1-CA80 type=native eps=0.119500 sigma=32.790543
pair_coeff 1 155 -4.249209e+08 0.000000e+00 3.777359e+17 # CA1-SC80 type=native eps=0.119500 sigma=34.805806
pair_coeff 1 156 -7.770944e+07 0.000000e+00 2.526677e+16 # CA1-CA81 type=native eps=0.059750 sigma=29.434115
pair_coeff 1 157 -1.885618e+08 0.000000e+00 4.958934e+16 # CA1-SC81 type=native eps=0.179250 sigma=28.411496
pair_coeff 1 158 -8.283084e+07 0.000000e+00 1.435345e+16 # CA1-CA82 type=native eps=0.119500 sigma=26.503244
pair_coeff 1 159 -8.391926e+07 0.000000e+00 1.473314e+16 # CA1-SC82 type=native eps=0.119500 sigma=26.560971
pair_coeff 1 160 -3.502712e+07 0.000000e+00 2.566735e+15 # CA1-CA83 type=native eps=0.119500 sigma=22.961544
pair_coeff 1 161 -1.634791e+07 0.000000e+00 5.591092e+14 # CA1-SC83 type=native eps=0.119500 sigma=20.222929
pair_coeff 1 162 -1.209165e+07 0.000000e+00 4.588116e+14 # CA1-CA84 type=native eps=0.079667 sigma=20.576104
pair_coeff 1 163 -4.060377e+07 0.000000e+00 2.586819e+15 # CA1-SC84 type=native eps=0.159333 sigma=22.432187
pair_coeff 1 164 -7.386779e+06 0.000000e+00 8.561376e+13 # CA1-CA85 type=native eps=0.159333 sigma=16.885726
pair_coeff 1 165 -2.959598e+06 0.000000e+00 2.748709e+13 # CA1-SC85 type=native eps=0.079667 sigma=16.273751
pair_coeff 1 166 -2.332320e+06 0.000000e+00 2.276032e+13 # CA1-CA86 type=native eps=0.059750 sigma=16.408543
pair_coeff 1 167 -1.969146e+07 0.000000e+00 5.408001e+14 # CA1-SC86 type=native eps=0.179250 sigma=19.496866
pair_coeff 1 168 -9.467417e+05 0.000000e+00 3.281506e+12 # CA1-CA87 type=native eps=0.068286 sigma=13.808461
pair_coeff 1 169 -1.146809e+06 0.000000e+00 1.925982e+12 # CA1-SC87 type=native eps=0.170714 sigma=12.237664
pair_coeff 1 170 -1.428089e+06 0.000000e+00 8.533214e+12 # CA1-CA88 type=native eps=0.059750 sigma=15.120445
pair_coeff 1 171 -6.583396e+06 0.000000e+00 6.044784e+13 # CA1-SC88 type=native eps=0.179250 sigma=16.242772
pair_coeff 1 172 -1.818698e+06 0.000000e+00 8.649749e+12 # CA1-CA89 type=native eps=0.095600 sigma=14.556115
pair_coeff 1 173 -3.276517e+06 0.000000e+00 1.871612e+13 # CA1-SC89 type=native eps=0.143400 sigma=15.007403
pair_coeff 1 174 -4.403050e+06 0.000000e+00 4.055827e+13 # CA1-CA90 type=native eps=0.119500 sigma=16.251469
pair_coeff 1 175 -4.384141e+06 0.000000e+00 4.021065e+13 # CA1-SC90 type=native eps=0.119500 sigma=16.239816
pair_coeff 1 176 -8.936376e+06 0.000000e+00 1.392239e+14 # CA1-CA91 type=native eps=0.143400 sigma=17.739051
pair_coeff 1 177 -6.550754e+06 0.000000e+00 1.122186e+14 # CA1-SC91 type=native eps=0.095600 sigma=18.021900
pair_coeff 1 178 0.000000e+00 0.000000e+00 4.009755e+04 # CA1-CA92 type=non-native eps=0.002390 sigma=4.000000
pair_coeff 1 179 0.000000e+00 0.000000e+00 2.286802e+04 # CA1-SC92 type=non-native eps=0.002390 sigma=3.817121
pair_coeff 1 180 0.000000e+00 0.000000e+00 4.009755e+04 # CA1-CA93 type=non-native eps=0.002390 sigma=4.000000
pair_coeff 1 181 0.000000e+00 0.000000e+00 2.880942e+05 # CA1-SC93 type=non-native eps=0.002390 sigma=4.714418
pair_coeff 1 182 0.000000e+00 0.000000e+00 4.009755e+04 # CA1-CA94 type=non-native eps=0.002390 sigma=4.000000
pair_coeff 1 183 0.000000e+00 0.000000e+00 6.317440e+04 # CA1-SC94 type=non-native eps=0.002390 sigma=4.154435
pair_coeff 1 184 0.000000e+00 0.000000e+00 4.009755e+04 # CA1-CA95 type=non-native eps=0.002390 sigma=4.000000
pair_coeff 1 185 0.000000e+00 0.000000e+00 4.009755e+04 # CA1-CA96 type=non-native eps=0.002390 sigma=4.000000
pair_coeff 1 186 0.000000e+00 0.000000e+00 2.286802e+04 # CA1-SC96 type=non-native eps=0.002390 sigma=3.817121
pair_coeff 1 187 0.000000e+00 0.000000e+00 4.009755e+04 # CA1-CA97 type=non-native eps=0.002390 sigma=4.000000
pair_coeff 1 188 0.000000e+00 0.000000e+00 4.009755e+04 # CA1-SC97 type=non-native eps=0.002390 sigma=4.000000
pair_coeff 1 189 0.000000e+00 0.000000e+00 4.009755e+04 # CA1-CA98 type=non-native eps=0.002390 sigma=4.000000
pair_coeff 1 190 0.000000e+00 0.000000e+00 2.286802e+04 # CA1-SC98 type=non-native eps=0.002390 sigma=3.817121
pair_coeff 1 191 0.000000e+00 0.000000e+00 4.009755e+04 # CA1-CA99 type=non-native eps=0.002390 sigma=4.000000
pair_coeff 1 192 0.000000e+00 0.000000e+00 4.009755e+04 # CA1-SC99 type=non-native eps=0.002390 sigma=4.000000
pair_coeff 1 193 0.000000e+00 0.000000e+00 4.009755e+04 # CA1-CA100 type=non-native eps=0.002390 sigma=4.000000
pair_coeff 1 194 0.000000e+00 0.000000e+00 1.085818e+04 # CA1-SC100 type=non-native eps=0.002390 sigma=3.587401
pair_coeff 1 195 0.000000e+00 0.000000e+00 4.009755e+04 # CA1-CA101 type=non-native eps=0.002390 sigma=4.000000
pair_coeff 1 196 0.000000e+00 0.000000e+00 6.317440e+04 # CA1-SC101 type=non-native eps=0.002390 sigma=4.154435
pair_coeff 1 197 0.000000e+00 0.000000e+00 4.009755e+04 # CA1-CA102 type=non-native eps=0.002390 sigma=4.000000
pair_coeff 1 198 0.000000e+00 0.000000e+00 1.085818e+04 # CA1-SC102 type=non-native eps=0.002390 sigma=3.587401
pair_coeff 1 199 0.000000e+00 0.000000e+00 4.009755e+04 # CA1-CA103 type=non-native eps=0.002390 sigma=4.000000
pair_coeff 1 200 0.000000e+00 0.000000e+00 2.286802e+04 # CA1-SC103 type=non-native eps=0.002390 sigma=3.817121
pair_coeff 1 201 0.000000e+00 0.000000e+00 4.009755e+04 # CA1-CA104 type=non-native eps=0.002390 sigma=4.000000
pair_coeff 1 202 0.000000e+00 0.000000e+00 1.085818e+04 # CA1-SC104 type=non-native eps=0.002390 sigma=3.587401
pair_coeff 1 203 0.000000e+00 0.000000e+00 4.009755e+04 # CA1-CA105 type=non-native eps=0.002390 sigma=4.000000
pair_coeff 1 204 0.000000e+00 0.000000e+00 6.317440e+04 # CA1-SC105 type=non-native eps=0.002390 sigma=4.154435
pair_coeff 1 205 0.000000e+00 0.000000e+00 4.009755e+04 # CA1-CA106 type=non-native eps=0.002390 sigma=4.000000
pair_coeff 1 206 0.000000e+00 0.000000e+00 4.009755e+04 # CA1-SC106 type=non-native eps=0.002390 sigma=4.000000
pair_coeff 1 207 0.000000e+00 0.000000e+00 4.009755e+04 # CA1-CA107 type=non-native eps=0.002390 sigma=4.000000
pair_coeff 1 208 0.000000e+00 0.000000e+00 1.085818e+04 # CA1-SC107 type=non-native eps=0.002390 sigma=3.587401
pair_coeff 2 2 0.000000e+00 0.000000e+00 4.009755e+04 # CA2-CA2 type=non-native eps=0.002390 sigma=4.000000
pair_coeff 2 3 0.000000e+00 0.000000e+00 2.286802e+04 # CA2-SC2 type=non-native eps=0.002390 sigma=3.817121
pair_coeff 2 4 0.000000e+00 0.000000e+00 4.009755e+04 # CA2-CA3 type=non-native eps=0.002390 sigma=4.000000
pair_coeff 2 5 0.000000e+00 0.000000e+00 4.009755e+04 # CA2-SC3 type=non-native eps=0.002390 sigma=4.000000
pair_coeff 2 6 0.000000e+00 0.000000e+00 4.009755e+04 # CA2-CA4 type=non-native eps=0.002390 sigma=4.000000
pair_coeff 2 7 0.000000e+00 0.000000e+00 4.009755e+04 # CA2-SC4 type=non-native eps=0.002390 sigma=4.000000
pair_coeff 2 8 0.000000e+00 0.000000e+00 4.009755e+04 # CA2-CA5 type=non-native eps=0.002390 sigma=4.000000
pair_coeff 2 9 0.000000e+00 0.000000e+00 3.442571e+03 # CA2-SC5 type=non-native eps=0.002390 sigma=3.259921
pair_coeff 2 10 0.000000e+00 0.000000e+00 4.009755e+04 # CA2-CA6 type=non-native eps=0.002390 sigma=4.000000
pair_coeff 2 11 0.000000e+00 0.000000e+00 1.085818e+04 # CA2-SC6 type=non-native eps=0.002390 sigma=3.587401
pair_coeff 2 12 0.000000e+00 0.000000e+00 4.009755e+04 # CA2-CA7 type=non-native eps=0.002390 sigma=4.000000
pair_coeff 2 13 0.000000e+00 0.000000e+00 2.286802e+04 # CA2-SC7 type=non-native eps=0.002390 sigma=3.817121
pair_coeff 2 14 0.000000e+00 0.000000e+00 4.009755e+04 # CA2-CA8 type=non-native eps=0.002390 sigma=4.000000
pair_coeff 2 15 0.000000e+00 0.000000e+00 6.317440e+04 # CA2-SC8 type=non-native eps=0.002390 sigma=4.154435
pair_coeff 2 16 0.000000e+00 0.000000e+00 4.009755e+04 # CA2-CA9 type=non-native eps=0.002390 sigma=4.000000
pair_coeff 2 17 0.000000e+00 0.000000e+00 6.317440e+04 # CA2-SC9 type=non-native eps=0.002390 sigma=4.154435
pair_coeff 2 18 0.000000e+00 0.000000e+00 4.009755e+04 # CA2-CA10 type=non-native eps=0.002390 sigma=4.000000
pair_coeff 2 19 0.000000e+00 0.000000e+00 6.317440e+04 # CA2-SC10 type=non-native eps=0.002390 sigma=4.154435
pair_coeff 2 20 0.000000e+00 0.000000e+00 4.009755e+04 # CA2-CA11 type=non-native eps=0.002390 sigma=4.000000
pair_coeff 2 21 0.000000e+00 0.000000e+00 4.009755e+04 # CA2-CA12 type=non-native eps=0.002390 sigma=4.000000
pair_coeff 2 22 0.000000e+00 0.000000e+00 2.286802e+04 # CA2-SC12 type=non-native eps=0.002390 sigma=3.817121
pair_coeff 2 23 0.000000e+00 0.000000e+00 4.009755e+04 # CA2-CA13 type=non-native eps=0.002390 sigma=4.000000
pair_coeff 2 24 0.000000e+00 0.000000e+00 1.293687e+05 # CA2-SC13 type=non-native eps=0.002390 sigma=4.410142
pair_coeff 2 25 0.000000e+00 0.000000e+00 4.009755e+04 # CA2-CA14 type=non-native eps=0.002390 sigma=4.000000
pair_coeff 2 26 0.000000e+00 0.000000e+00 1.293687e+05 # CA2-SC14 type=non-native eps=0.002390 sigma=4.410142
pair_coeff 2 27 0.000000e+00 0.000000e+00 4.009755e+04 # CA2-CA15 type=non-native eps=0.002390 sigma=4.000000
pair_coeff 2 28 0.000000e+00 0.000000e+00 3.442571e+03 # CA2-SC15 type=non-native eps=0.002390 sigma=3.259921
pair_coeff 2 29 0.000000e+00 0.000000e+00 4.009755e+04 # CA2-CA16 type=non-native eps=0.002390 sigma=4.000000
pair_coeff 2 30 0.000000e+00 0.000000e+00 4.009755e+04 # CA2-SC16 type=non-native eps=0.002390 sigma=4.000000
pair_coeff 2 31 0.000000e+00 0.000000e+00 4.009755e+04 # CA2-CA17 type=non-native eps=0.002390 sigma=4.000000
pair_coeff 2 32 0.000000e+00 0.000000e+00 4.009755e+04 # CA2-SC17 type=non-native eps=0.002390 sigma=4.000000
pair_coeff 2 33 0.000000e+00 0.000000e+00 4.009755e+04 # CA2-CA18 type=non-native eps=0.002390 sigma=4.000000
pair_coeff 2 34 0.000000e+00 0.000000e+00 1.293687e+05 # CA2-SC18 type=non-native eps=0.002390 sigma=4.410142
pair_coeff 2 35 0.000000e+00 0.000000e+00 4.009755e+04 # CA2-CA19 type=non-native eps=0.002390 sigma=4.000000
pair_coeff 2 36 0.000000e+00 0.000000e+00 3.442571e+03 # CA2-SC19 type=non-native eps=0.002390 sigma=3.259921
pair_coeff 2 37 0.000000e+00 0.000000e+00 4.009755e+04 # CA2-CA20 type=non-native eps=0.002390 sigma=4.000000
pair_coeff 2 38 0.000000e+00 0.000000e+00 2.286802e+04 # CA2-SC20 type=non-native eps=0.002390 sigma=3.817121
pair_coeff 2 39 0.000000e+00 0.000000e+00 4.009755e+04 # CA2-CA21 type=non-native eps=0.002390 sigma=4.000000
pair_coeff 2 40 0.000000e+00 0.000000e+00 4.009755e+04 # CA2-CA22 type=non-native eps=0.002390 sigma=4.000000
pair_coeff 2 41 0.000000e+00 0.000000e+00 6.317440e+04 # CA2-SC22 type=non-native eps=0.002390 sigma=4.154435
pair_coeff 2 42 0.000000e+00 0.000000e+00 4.009755e+04 # CA2-CA23 type=non-native eps=0.002390 sigma=4.000000
pair_coeff 2 43 0.000000e+00 0.000000e+00 1.737309e+05 # CA2-SC23 type=non-native eps=0.002390 sigma=4.519842
pair_coeff 2 44 0.000000e+00 0.000000e+00 4.009755e+04 # CA2-CA24 type=non-native eps=0.002390 sigma=4.000000
pair_coeff 2 45 0.000000e+00 0.000000e+00 4.009755e+04 # CA2-SC24 type=non-native eps=0.002390 sigma=4.000000
pair_coeff 2 46 0.000000e+00 0.000000e+00 4.009755e+04 # CA2-CA25 type=non-native eps=0.002390 sigma=4.000000
pair_coeff 2 47 0.000000e+00 0.000000e+00 6.317440e+04 # CA2-SC25 type=non-native eps=0.002390 sigma=4.154435
pair_coeff 2 48 0.000000e+00 0.000000e+00 4.009755e+04 # CA2-CA26 type=non-native eps=0.002390 sigma=4.000000
pair_coeff 2 49 0.000000e+00 0.000000e+00 3.442571e+03 # CA2-SC26 type=non-native eps=0.002390 sigma=3.259921
pair_coeff 2 50 0.000000e+00 0.000000e+00 4.009755e+04 # CA2-CA27 type=non-native eps=0.002390 sigma=4.000000
pair_coeff 2 51 0.000000e+00 0.000000e+00 1.085818e+04 # CA2-SC27 type=non-native eps=0.002390 sigma=3.587401
pair_coeff 2 52 0.000000e+00 0.000000e+00 4.009755e+04 # CA2-CA28 type=non-native eps=0.002390 sigma=4.000000
pair_coeff 2 53 0.000000e+00 0.000000e+00 4.009755e+04 # CA2-SC28 type=non-native eps=0.002390 sigma=4.000000
pair_coeff 2 54 0.000000e+00 0.000000e+00 4.009755e+04 # CA2-CA29 type=non-native eps=0.002390 sigma=4.000000
pair_coeff 2 55 0.000000e+00 0.000000e+00 4.009755e+04 # CA2-SC29 type=non-native eps=0.002390 sigma=4.000000
pair_coeff 2 56 0.000000e+00 0.000000e+00 4.009755e+04 # CA2-CA30 type=non-native eps=0.002390 sigma=4.000000
pair_coeff 2 57 0.000000e+00 0.000000e+00 4.009755e+04 # CA2-SC30 type=non-native eps=0.002390 sigma=4.000000
pair_coeff 2 58 0.000000e+00 0.000000e+00 4.009755e+04 # CA2-CA31 type=non-native eps=0.002390 sigma=4.000000
pair_coeff 2 59 0.000000e+00 0.000000e+00 1.737309e+05 # CA2-SC31 type=non-native eps=0.002390 sigma=4.519842
pair_coeff 2 60 0.000000e+00 0.000000e+00 4.009755e+04 # CA2-CA32 type=non-native eps=0.002390 sigma=4.000000
pair_coeff 2 61 0.000000e+00 0.000000e+00 9.272377e+04 # CA2-SC32 type=non-native eps=0.002390 sigma=4.289428
pair_coeff 2 62 0.000000e+00 0.000000e+00 4.009755e+04 # CA2-CA33 type=non-native eps=0.002390 sigma=4.000000
pair_coeff 2 63 0.000000e+00 0.000000e+00 1.085818e+04 # CA2-SC33 type=non-native eps=0.002390 sigma=3.587401
pair_coeff 2 64 0.000000e+00 0.000000e+00 4.009755e+04 # CA2-CA34 type=non-native eps=0.002390 sigma=4.000000
pair_coeff 2 65 0.000000e+00 0.000000e+00 1.293687e+05 # CA2-SC34 type=non-native eps=0.002390 sigma=4.410142
pair_coeff 2 66 0.000000e+00 0.000000e+00 4.009755e+04 # CA2-CA35 type=non-native eps=0.002390 sigma=4.000000
pair_coeff 2 67 0.000000e+00 0.000000e+00 3.442571e+03 # CA2-SC35 type=non-native eps=0.002390 sigma=3.259921
pair_coeff 2 68 0.000000e+00 0.000000e+00 4.009755e+04 # CA2-CA36 type=non-native eps=0.002390 sigma=4.000000
pair_coeff 2 69 0.000000e+00 0.000000e+00 4.009755e+04 # CA2-SC36 type=non-native eps=0.002390 sigma=4.000000
pair_coeff 2 70 0.000000e+00 0.000000e+00 4.009755e+04 # CA2-CA37 type=non-native eps=0.002390 sigma=4.000000
pair_coeff 2 71 0.000000e+00 0.000000e+00 6.317440e+04 # CA2-SC37 type=non-native eps=0.002390 sigma=4.154435
pair_coeff 2 72 0.000000e+00 0.000000e+00 4.009755e+04 # CA2-CA38 type=non-native eps=0.002390 sigma=4.000000
pair_coeff 2 73 0.000000e+00 0.000000e+00 2.286802e+04 # CA2-SC38 type=non-native eps=0.002390 sigma=3.817121
pair_coeff 2 74 0.000000e+00 0.000000e+00 4.009755e+04 # CA2-CA39 type=non-native eps=0.002390 sigma=4.000000
pair_coeff 2 75 0.000000e+00 0.000000e+00 2.286802e+04 # CA2-SC39 type=non-native eps=0.002390 sigma=3.817121
pair_coeff 2 76 0.000000e+00 0.000000e+00 4.009755e+04 # CA2-CA40 type=non-native eps=0.002390 sigma=4.000000
pair_coeff 2 77 0.000000e+00 0.000000e+00 1.293687e+05 # CA2-SC40 type=non-native eps=0.002390 sigma=4.410142
pair_coeff 2 78 0.000000e+00 0.000000e+00 4.009755e+04 # CA2-CA41 type=non-native eps=0.002390 sigma=4.000000
pair_coeff 2 79 0.000000e+00 0.000000e+00 3.442571e+03 # CA2-SC41 type=non-native eps=0.002390 sigma=3.259921
pair_coeff 2 80 0.000000e+00 0.000000e+00 4.009755e+04 # CA2-CA42 type=non-native eps=0.002390 sigma=4.000000
pair_coeff 2 81 0.000000e+00 0.000000e+00 1.293687e+05 # CA2-SC42 type=non-native eps=0.002390 sigma=4.410142
pair_coeff 2 82 0.000000e+00 0.000000e+00 4.009755e+04 # CA2-CA43 type=non-native eps=0.002390 sigma=4.000000
pair_coeff 2 83 0.000000e+00 0.000000e+00 6.317440e+04 # CA2-SC43 type=non-native eps=0.002390 sigma=4.154435
pair_coeff 2 84 0.000000e+00 0.000000e+00 4.009755e+04 # CA2-CA44 type=non-native eps=0.002390 sigma=4.000000
pair_coeff 2 85 0.000000e+00 0.000000e+00 6.317440e+04 # CA2-SC44 type=non-native eps=0.002390 sigma=4.154435
pair_coeff 2 86 0.000000e+00 0.000000e+00 4.009755e+04 # CA2-CA45 type=non-native eps=0.002390 sigma=4.000000
pair_coeff 2 87 0.000000e+00 0.000000e+00 4.009755e+04 # CA2-SC45 type=non-native eps=0.002390 sigma=4.000000
pair_coeff 2 88 0.000000e+00 0.000000e+00 4.009755e+04 # CA2-CA46 type=non-native eps=0.002390 sigma=4.000000
pair_coeff 2 89 0.000000e+00 0.000000e+00 2.286802e+04 # CA2-SC46 type=non-native eps=0.002390 sigma=3.817121
pair_coeff 2 90 0.000000e+00 0.000000e+00 4.009755e+04 # CA2-CA47 type=non-native eps=0.002390 sigma=4.000000
pair_coeff 2 91 0.000000e+00 0.000000e+00 3.442571e+03 # CA2-SC47 type=non-native eps=0.002390 sigma=3.259921
pair_coeff 2 92 0.000000e+00 0.000000e+00 4.009755e+04 # CA2-CA48 type=non-native eps=0.002390 sigma=4.000000
pair_coeff 2 93 0.000000e+00 0.000000e+00 4.009755e+04 # CA2-CA49 type=non-native eps=0.002390 sigma=4.000000
pair_coeff 2 94 0.000000e+00 0.000000e+00 2.286802e+04 # CA2-SC49 type=non-native eps=0.002390 sigma=3.817121
pair_coeff 2 95 0.000000e+00 0.000000e+00 4.009755e+04 # CA2-CA50 type=non-native eps=0.002390 sigma=4.000000
pair_coeff 2 96 0.000000e+00 0.000000e+00 4.009755e+04 # CA2-SC50 type=non-native eps=0.002390 sigma=4.000000
pair_coeff 2 97 0.000000e+00 0.000000e+00 4.009755e+04 # CA2-CA51 type=non-native eps=0.002390 sigma=4.000000
pair_coeff 2 98 0.000000e+00 0.000000e+00 1.737309e+05 # CA2-SC51 type=non-native eps=0.002390 sigma=4.519842
pair_coeff 2 99 0.000000e+00 0.000000e+00 4.009755e+04 # CA2-CA52 type=non-native eps=0.002390 sigma=4.000000
pair_coeff 2 100 0.000000e+00 0.000000e+00 1.293687e+05 # CA2-SC52 type=non-native eps=0.002390 sigma=4.410142
pair_coeff 2 101 0.000000e+00 0.000000e+00 4.009755e+04 # CA2-CA53 type=non-native eps=0.002390 sigma=4.000000
pair_coeff 2 102 0.000000e+00 0.000000e+00 4.009755e+04 # CA2-SC53 type=non-native eps=0.002390 sigma=4.000000
pair_coeff 2 103 0.000000e+00 0.000000e+00 4.009755e+04 # CA2-CA54 type=non-native eps=0.002390 sigma=4.000000
pair_coeff 2 104 0.000000e+00 0.000000e+00 4.009755e+04 # CA2-SC54 type=non-native eps=0.002390 sigma=4.000000
pair_coeff 2 105 0.000000e+00 0.000000e+00 4.009755e+04 # CA2-CA55 type=non-native eps=0.002390 sigma=4.000000
pair_coeff 2 106 0.000000e+00 0.000000e+00 2.286802e+04 # CA2-SC55 type=non-native eps=0.002390 sigma=3.817121
pair_coeff 2 107 0.000000e+00 0.000000e+00 4.009755e+04 # CA2-CA56 type=non-native eps=0.002390 sigma=4.000000
pair_coeff 2 108 0.000000e+00 0.000000e+00 6.317440e+04 # CA2-SC56 type=non-native eps=0.002390 sigma=4.154435
pair_coeff 2 109 0.000000e+00 0.000000e+00 4.009755e+04 # CA2-CA57 type=non-native eps=0.002390 sigma=4.000000
pair_coeff 2 110 0.000000e+00 0.000000e+00 4.009755e+04 # CA2-SC57 type=non-native eps=0.002390 sigma=4.000000
pair_coeff 2 111 0.000000e+00 0.000000e+00 4.009755e+04 # CA2-CA58 type=non-native eps=0.002390 sigma=4.000000
pair_coeff 2 112 0.000000e+00 0.000000e+00 4.009755e+04 # CA2-CA59 type=non-native eps=0.002390 sigma=4.000000
pair_coeff 2 113 0.000000e+00 0.000000e+00 1.293687e+05 # CA2-SC59 type=non-native eps=0.002390 sigma=4.410142
pair_coeff 2 114 0.000000e+00 0.000000e+00 4.009755e+04 # CA2-CA60 type=non-native eps=0.002390 sigma=4.000000
pair_coeff 2 115 0.000000e+00 0.000000e+00 2.286802e+04 # CA2-SC60 type=non-native eps=0.002390 sigma=3.817121
pair_coeff 2 116 0.000000e+00 0.000000e+00 4.009755e+04 # CA2-CA61 type=non-native eps=0.002390 sigma=4.000000
pair_coeff 2 117 0.000000e+00 0.000000e+00 2.286802e+04 # CA2-SC61 type=non-native eps=0.002390 sigma=3.817121
pair_coeff 2 118 0.000000e+00 0.000000e+00 4.009755e+04 # CA2-CA62 type=non-native eps=0.002390 sigma=4.000000
pair_coeff 2 119 0.000000e+00 0.000000e+00 1.085818e+04 # CA2-SC62 type=non-native eps=0.002390 sigma=3.587401
pair_coeff 2 120 0.000000e+00 0.000000e+00 4.009755e+04 # CA2-CA63 type=non-native eps=0.002390 sigma=4.000000
pair_coeff 2 121 0.000000e+00 0.000000e+00 2.286802e+04 # CA2-SC63 type=non-native eps=0.002390 sigma=3.817121
pair_coeff 2 122 0.000000e+00 0.000000e+00 4.009755e+04 # CA2-CA64 type=non-native eps=0.002390 sigma=4.000000
pair_coeff 2 123 0.000000e+00 0.000000e+00 6.317440e+04 # CA2-SC64 type=non-native eps=0.002390 sigma=4.154435
pair_coeff 2 124 0.000000e+00 0.000000e+00 4.009755e+04 # CA2-CA65 type=non-native eps=0.002390 sigma=4.000000
pair_coeff 2 125 0.000000e+00 0.000000e+00 2.286802e+04 # CA2-SC65 type=non-native eps=0.002390 sigma=3.817121
pair_coeff 2 126 0.000000e+00 0.000000e+00 4.009755e+04 # CA2-CA66 type=non-native eps=0.002390 sigma=4.000000
pair_coeff 2 127 0.000000e+00 0.000000e+00 9.272377e+04 # CA2-SC66 type=non-native eps=0.002390 sigma=4.289428
pair_coeff 2 128 0.000000e+00 0.000000e+00 4.009755e+04 # CA2-CA67 type=non-native eps=0.002390 sigma=4.000000
pair_coeff 2 129 0.000000e+00 0.000000e+00 4.009755e+04 # CA2-SC67 type=non-native eps=0.002390 sigma=4.000000
pair_coeff 2 130 0.000000e+00 0.000000e+00 4.009755e+04 # CA2-CA68 type=non-native eps=0.002390 sigma=4.000000
pair_coeff 2 131 0.000000e+00 0.000000e+00 4.009755e+04 # CA2-SC68 type=non-native eps=0.002390 sigma=4.000000
pair_coeff 2 132 0.000000e+00 0.000000e+00 4.009755e+04 # CA2-CA69 type=non-native eps=0.002390 sigma=4.000000
pair_coeff 2 133 0.000000e+00 0.000000e+00 4.009755e+04 # CA2-SC69 type=non-native eps=0.002390 sigma=4.000000
pair_coeff 2 134 0.000000e+00 0.000000e+00 4.009755e+04 # CA2-CA70 type=non-native eps=0.002390 sigma=4.000000
pair_coeff 2 135 0.000000e+00 0.000000e+00 1.085818e+04 # CA2-SC70 type=non-native eps=0.002390 sigma=3.587401
pair_coeff 2 136 0.000000e+00 0.000000e+00 4.009755e+04 # CA2-CA71 type=non-native eps=0.002390 sigma=4.000000
pair_coeff 2 137 0.000000e+00 0.000000e+00 2.286802e+04 # CA2-SC71 type=non-native eps=0.002390 sigma=3.817121
pair_coeff 2 138 0.000000e+00 0.000000e+00 4.009755e+04 # CA2-CA72 type=non-native eps=0.002390 sigma=4.000000
pair_coeff 2 139 0.000000e+00 0.000000e+00 1.293687e+05 # CA2-SC72 type=non-native eps=0.002390 sigma=4.410142
pair_coeff 2 140 0.000000e+00 0.000000e+00 4.009755e+04 # CA2-CA73 type=non-native eps=0.002390 sigma=4.000000
pair_coeff 2 141 0.000000e+00 0.000000e+00 9.272377e+04 # CA2-SC73 type=non-native eps=0.002390 sigma=4.289428
pair_coeff 2 142 0.000000e+00 0.000000e+00 4.009755e+04 # CA2-CA74 type=non-native eps=0.002390 sigma=4.000000
pair_coeff 2 143 0.000000e+00 0.000000e+00 4.009755e+04 # CA2-SC74 type=non-native eps=0.002390 sigma=4.000000
pair_coeff 2 144 0.000000e+00 0.000000e+00 4.009755e+04 # CA2-CA75 type=non-native eps=0.002390 sigma=4.000000
pair_coeff 2 145 0.000000e+00 0.000000e+00 6.317440e+04 # CA2-SC75 type=non-native eps=0.002390 sigma=4.154435
pair_coeff 2 146 0.000000e+00 0.000000e+00 4.009755e+04 # CA2-CA76 type=non-native eps=0.002390 sigma=4.000000
pair_coeff 2 147 0.000000e+00 0.000000e+00 2.286802e+04 # CA2-SC76 type=non-native eps=0.002390 sigma=3.817121
pair_coeff 2 148 0.000000e+00 0.000000e+00 4.009755e+04 # CA2-CA77 type=non-native eps=0.002390 sigma=4.000000
pair_coeff 2 149 0.000000e+00 0.000000e+00 9.272377e+04 # CA2-SC77 type=non-native eps=0.002390 sigma=4.289428
pair_coeff 2 150 0.000000e+00 0.000000e+00 4.009755e+04 # CA2-CA78 type=non-native eps=0.002390 sigma=4.000000
pair_coeff 2 151 0.000000e+00 0.000000e+00 4.009755e+04 # CA2-SC78 type=non-native eps=0.002390 sigma=4.000000
pair_coeff 2 152 0.000000e+00 0.000000e+00 4.009755e+04 # CA2-CA79 type=non-native eps=0.002390 sigma=4.000000
pair_coeff 2 153 0.000000e+00 0.000000e+00 6.317440e+04 # CA2-SC79 type=non-native eps=0.002390 sigma=4.154435
pair_coeff 2 154 0.000000e+00 0.000000e+00 4.009755e+04 # CA2-CA80 type=non-native eps=0.002390 sigma=4.000000
pair_coeff 2 155 0.000000e+00 0.000000e+00 1.293687e+05 # CA2-SC80 type=non-native eps=0.002390 sigma=4.410142
pair_coeff 2 156 0.000000e+00 0.000000e+00 4.009755e+04 # CA2-CA81 type=non-native eps=0.002390 sigma=4.000000
pair_coeff 2 157 0.000000e+00 0.000000e+00 6.317440e+04 # CA2-SC81 type=non-native eps=0.002390 sigma=4.154435
pair_coeff 2 158 0.000000e+00 0.000000e+00 4.009755e+04 # CA2-CA82 type=non-native eps=0.002390 sigma=4.000000
pair_coeff 2 159 0.000000e+00 0.000000e+00 3.442571e+03 # CA2-SC82 type=non-native eps=0.002390 sigma=3.259921
pair_coeff 2 160 0.000000e+00 0.000000e+00 4.009755e+04 # CA2-CA83 type=non-native eps=0.002390 sigma=4.000000
pair_coeff 2 161 0.000000e+00 0.000000e+00 1.293687e+05 # CA2-SC83 type=non-native eps=0.002390 sigma=4.410142
pair_coeff 2 162 0.000000e+00 0.000000e+00 4.009755e+04 # CA2-CA84 type=non-native eps=0.002390 sigma=4.000000
pair_coeff 2 163 0.000000e+00 0.000000e+00 1.085818e+04 # CA2-SC84 type=non-native eps=0.002390 sigma=3.587401
pair_coeff 2 164 0.000000e+00 0.000000e+00 4.009755e+04 # CA2-CA85 type=non-native eps=0.002390 sigma=4.000000
pair_coeff 2 165 0.000000e+00 0.000000e+00 1.085818e+04 # CA2-SC85 type=non-native eps=0.002390 sigma=3.587401
pair_coeff 2 166 0.000000e+00 0.000000e+00 4.009755e+04 # CA2-CA86 type=non-native eps=0.002390 sigma=4.000000
pair_coeff 2 167 0.000000e+00 0.000000e+00 1.293687e+05 # CA2-SC86 type=non-native eps=0.002390 sigma=4.410142
pair_coeff 2 168 0.000000e+00 0.000000e+00 4.009755e+04 # CA2-CA87 type=non-native eps=0.002390 sigma=4.000000
pair_coeff 2 169 0.000000e+00 0.000000e+00 6.317440e+04 # CA2-SC87 type=non-native eps=0.002390 sigma=4.154435
pair_coeff 2 170 0.000000e+00 0.000000e+00 4.009755e+04 # CA2-CA88 type=non-native eps=0.002390 sigma=4.000000
pair_coeff 2 171 0.000000e+00 0.000000e+00 4.009755e+04 # CA2-SC88 type=non-native eps=0.002390 sigma=4.000000
pair_coeff 2 172 0.000000e+00 0.000000e+00 4.009755e+04 # CA2-CA89 type=non-native eps=0.002390 sigma=4.000000
pair_coeff 2 173 0.000000e+00 0.000000e+00 1.737309e+05 # CA2-SC89 type=non-native eps=0.002390 sigma=4.519842
pair_coeff 2 174 0.000000e+00 0.000000e+00 4.009755e+04 # CA2-CA90 type=non-native eps=0.002390 sigma=4.000000
pair_coeff 2 175 0.000000e+00 0.000000e+00 3.442571e+03 # CA2-SC90 type=non-native eps=0.002390 sigma=3.259921
pair_coeff 2 176 0.000000e+00 0.000000e+00 4.009755e+04 # CA2-CA91 type=non-native eps=0.002390 sigma=4.000000
pair_coeff 2 177 0.000000e+00 0.000000e+00 2.286802e+04 # CA2-SC91 type=non-native eps=0.002390 sigma=3.817121
pair_coeff 2 178 0.000000e+00 0.000000e+00 4.009755e+04 # CA2-CA92 type=non-native eps=0.002390 sigma=4.000000
pair_coeff 2 179 0.000000e+00 0.000000e+00 2.286802e+04 # CA2-SC92 type=non-native eps=0.002390 sigma=3.817121
pair_coeff 2 180 0.000000e+00 0.000000e+00 4.009755e+04 # CA2-CA93 type=non-native eps=0.002390 sigma=4.000000
pair_coeff 2 181 0.000000e+00 0.000000e+00 2.880942e+05 # CA2-SC93 type=non-native eps=0.002390 sigma=4.714418
pair_coeff 2 182 0.000000e+00 0.000000e+00 4.009755e+04 # CA2-CA94 type=non-native eps=0.002390 sigma=4.000000
pair_coeff 2 183 0.000000e+00 0.000000e+00 6.317440e+04 # CA2-SC94 type=non-native eps=0.002390 sigma=4.154435
pair_coeff 2 184 0.000000e+00 0.000000e+00 4.009755e+04 # CA2-CA95 type=non-native eps=0.002390 sigma=4.000000
pair_coeff 2 185 0.000000e+00 0.000000e+00 4.009755e+04 # CA2-CA96 type=non-native eps=0.002390 sigma=4.000000
pair_coeff 2 186 0.000000e+00 0.000000e+00 2.286802e+04 # CA2-SC96 type=non-native eps=0.002390 sigma=3.817121
pair_coeff 2 187 0.000000e+00 0.000000e+00 4.009755e+04 # CA2-CA97 type=non-native eps=0.002390 sigma=4.000000
pair_coeff 2 188 0.000000e+00 0.000000e+00 4.009755e+04 # CA2-SC97 type=non-native eps=0.002390 sigma=4.000000
pair_coeff 2 189 0.000000e+00 0.000000e+00 4.009755e+04 # CA2-CA98 type=non-native eps=0.002390 sigma=4.000000
pair_coeff 2 190 0.000000e+00 0.000000e+00 2.286802e+04 # CA2-SC98 type=non-native eps=0.002390 sigma=3.817121
pair_coeff 2 191 0.000000e+00 0.000000e+00 4.009755e+04 # CA2-CA99 type=non-native eps=0.002390 sigma=4.000000
pair_coeff 2 192 0.000000e+00 0.000000e+00 4.009755e+04 # CA2-SC99 type=non-native eps=0.002390 sigma=4.000000
pair_coeff 2 193 0.000000e+00 0.000000e+00 4.009755e+04 # CA2-CA100 type=non-native eps=0.002390 sigma=4.000000
pair_coeff 2 194 0.000000e+00 0.000000e+00 1.085818e+04 # CA2-SC100 type=non-native eps=0.002390 sigma=3.587401
pair_coeff 2 195 0.000000e+00 0.000000e+00 4.009755e+04 # CA2-CA101 type=non-native eps=0.002390 sigma=4.000000
pair_coeff 2 196 0.000000e+00 0.000000e+00 6.317440e+04 # CA2-SC101 type=non-native eps=0.002390 sigma=4.154435
pair_coeff 2 197 0.000000e+00 0.000000e+00 4.009755e+04 # CA2-CA102 type=non-native eps=0.002390 sigma=4.000000
pair_coeff 2 198 0.000000e+00 0.000000e+00 1.085818e+04 # CA2-SC102 type=non-native eps=0.002390 sigma=3.587401
pair_coeff 2 199 0.000000e+00 0.000000e+00 4.009755e+04 # CA2-CA103 type=non-native eps=0.002390 sigma=4.000000
pair_coeff 2 200 0.000000e+00 0.000000e+00 2.286802e+04 # CA2-SC103 type=non-native eps=0.002390 sigma=3.817121
pair_coeff 2 201 0.000000e+00 0.000000e+00 4.009755e+04 # CA2-CA104 type=non-native eps=0.002390 sigma=4.000000
pair_coeff 2 202 0.000000e+00 0.000000e+00 1.085818e+04 # CA2-SC104 type=non-native eps=0.002390 sigma=3.587401
pair_coeff 2 203 0.000000e+00 0.000000e+00 4.009755e+04 # CA2-CA105 type=non-native eps=0.002390 sigma=4.000000
pair_coeff 2 204 0.000000e+00 0.000000e+00 6.317440e+04 # CA2-SC105 type=non-native eps=0.002390 sigma=4.154435
pair_coeff 2 205 0.000000e+00 0.000000e+00 4.009755e+04 # CA2-CA106 type=non-native eps=0.002390 sigma=4.000000
pair_coeff 2 206 0.000000e+00 0.000000e+00 4.009755e+04 # CA2-SC106 type=non-native eps=0.002390 sigma=4.000000
pair_coeff 2 207 0.000000e+00 0.000000e+00 4.009755e+04 # CA2-CA107 type=non-native eps=0.002390 sigma=4.000000
pair_coeff 2 208 0.000000e+00 0.000000e+00 1.085818e+04 # CA2-SC107 type=non-native eps=0.002390 sigma=3.587401
pair_coeff 3 3 0.000000e+00 0.000000e+00 1.268711e+04 # SC2-SC2 type=non-native eps=0.002390 sigma=3.634241
pair_coeff 3 4 0.000000e+00 0.000000e+00 2.286802e+04 # SC2-CA3 type=non-native eps=0.002390 sigma=3.817121
pair_coeff 3 5 0.000000e+00 0.000000e+00 2.286802e+04 # SC2-SC3 type=non-native eps=0.002390 sigma=3.817121
pair_coeff 3 6 0.000000e+00 0.000000e+00 2.286802e+04 # SC2-CA4 type=non-native eps=0.002390 sigma=3.817121
pair_coeff 3 7 0.000000e+00 0.000000e+00 2.286802e+04 # SC2-SC4 type=non-native eps=0.002390 sigma=3.817121
pair_coeff 3 8 0.000000e+00 0.000000e+00 2.286802e+04 # SC2-CA5 type=non-native eps=0.002390 sigma=3.817121
pair_coeff 3 9 0.000000e+00 0.000000e+00 1.721862e+03 # SC2-SC5 type=non-native eps=0.002390 sigma=3.077042
pair_coeff 3 10 0.000000e+00 0.000000e+00 2.286802e+04 # SC2-CA6 type=non-native eps=0.002390 sigma=3.817121
pair_coeff 3 11 0.000000e+00 0.000000e+00 5.795236e+03 # SC2-SC6 type=non-native eps=0.002390 sigma=3.404522
pair_coeff 3 12 0.000000e+00 0.000000e+00 2.286802e+04 # SC2-CA7 type=non-native eps=0.002390 sigma=3.817121
pair_coeff 3 13 0.000000e+00 0.000000e+00 1.268711e+04 # SC2-SC7 type=non-native eps=0.002390 sigma=3.634241
pair_coeff 3 14 0.000000e+00 0.000000e+00 2.286802e+04 # SC2-CA8 type=non-native eps=0.002390 sigma=3.817121
pair_coeff 3 15 0.000000e+00 0.000000e+00 3.680656e+04 # SC2-SC8 type=non-native eps=0.002390 sigma=3.971555
pair_coeff 3 16 0.000000e+00 0.000000e+00 2.286802e+04 # SC2-CA9 type=non-native eps=0.002390 sigma=3.817121
pair_coeff 3 17 0.000000e+00 0.000000e+00 3.680656e+04 # SC2-SC9 type=non-native eps=0.002390 sigma=3.971555
pair_coeff 3 18 0.000000e+00 0.000000e+00 2.286802e+04 # SC2-CA10 type=non-native eps=0.002390 sigma=3.817121
pair_coeff 3 19 0.000000e+00 0.000000e+00 3.680656e+04 # SC2-SC10 type=non-native eps=0.002390 sigma=3.971555
pair_coeff 3 20 0.000000e+00 0.000000e+00 2.286802e+04 # SC2-CA11 type=non-native eps=0.002390 sigma=3.817121
pair_coeff 3 21 0.000000e+00 0.000000e+00 2.286802e+04 # SC2-CA12 type=non-native eps=0.002390 sigma=3.817121
pair_coeff 3 22 0.000000e+00 0.000000e+00 1.268711e+04 # SC2-SC12 type=non-native eps=0.002390 sigma=3.634241
pair_coeff 3 23 0.000000e+00 0.000000e+00 2.286802e+04 # SC2-CA13 type=non-native eps=0.002390 sigma=3.817121
pair_coeff 3 24 0.000000e+00 0.000000e+00 7.782318e+04 # SC2-SC13 type=non-native eps=0.002390 sigma=4.227263
pair_coeff 3 25 0.000000e+00 0.000000e+00 2.286802e+04 # SC2-CA14 type=non-native eps=0.002390 sigma=3.817121
pair_coeff 3 26 0.000000e+00 0.000000e+00 7.782318e+04 # SC2-SC14 type=non-native eps=0.002390 sigma=4.227263
pair_coeff 3 27 0.000000e+00 0.000000e+00 2.286802e+04 # SC2-CA15 type=non-native eps=0.002390 sigma=3.817121
pair_coeff 3 28 0.000000e+00 0.000000e+00 1.721862e+03 # SC2-SC15 type=non-native eps=0.002390 sigma=3.077042
pair_coeff 3 29 0.000000e+00 0.000000e+00 2.286802e+04 # SC2-CA16 type=non-native eps=0.002390 sigma=3.817121
pair_coeff 3 30 0.000000e+00 0.000000e+00 2.286802e+04 # SC2-SC16 type=non-native eps=0.002390 sigma=3.817121
pair_coeff 3 31 0.000000e+00 0.000000e+00 2.286802e+04 # SC2-CA17 type=non-native eps=0.002390 sigma=3.817121
pair_coeff 3 32 0.000000e+00 0.000000e+00 2.286802e+04 # SC2-SC17 type=non-native eps=0.002390 sigma=3.817121
pair_coeff 3 33 0.000000e+00 0.000000e+00 2.286802e+04 # SC2-CA18 type=non-native eps=0.002390 sigma=3.817121
pair_coeff 3 34 0.000000e+00 0.000000e+00 7.782318e+04 # SC2-SC18 type=non-native eps=0.002390 sigma=4.227263
pair_coeff 3 35 0.000000e+00 0.000000e+00 2.286802e+04 # SC2-CA19 type=non-native eps=0.002390 sigma=3.817121
pair_coeff 3 36 0.000000e+00 0.000000e+00 1.721862e+03 # SC2-SC19 type=non-native eps=0.002390 sigma=3.077042
pair_coeff 3 37 0.000000e+00 0.000000e+00 2.286802e+04 # SC2-CA20 type=non-native eps=0.002390 sigma=3.817121
pair_coeff 3 38 0.000000e+00 0.000000e+00 1.268711e+04 # SC2-SC20 type=non-native eps=0.002390 sigma=3.634241
pair_coeff 3 39 0.000000e+00 0.000000e+00 2.286802e+04 # SC2-CA21 type=non-native eps=0.002390 sigma=3.817121
pair_coeff 3 40 0.000000e+00 0.000000e+00 2.286802e+04 # SC2-CA22 type=non-native eps=0.002390 sigma=3.817121
pair_coeff 3 41 0.000000e+00 0.000000e+00 3.680656e+04 # SC2-SC22 type=non-native eps=0.002390 sigma=3.971555
pair_coeff 3 42 0.000000e+00 0.000000e+00 2.286802e+04 # SC2-CA23 type=non-native eps=0.002390 sigma=3.817121
pair_coeff 3 43 0.000000e+00 0.000000e+00 1.058342e+05 # SC2-SC23 type=non-native eps=0.002390 sigma=4.336963
pair_coeff 3 44 0.000000e+00 0.000000e+00 2.286802e+04 # SC2-CA24 type=non-native eps=0.002390 sigma=3.817121
pair_coeff 3 45 0.000000e+00 0.000000e+00 2.286802e+04 # SC2-SC24 type=non-native eps=0.002390 sigma=3.817121
pair_coeff 3 46 0.000000e+00 0.000000e+00 2.286802e+04 # SC2-CA25 type=non-native eps=0.002390 sigma=3.817121
pair_coeff 3 47 0.000000e+00 0.000000e+00 3.680656e+04 # SC2-SC25 type=non-native eps=0.002390 sigma=3.971555
pair_coeff 3 48 0.000000e+00 0.000000e+00 2.286802e+04 # SC2-CA26 type=non-native eps=0.002390 sigma=3.817121
pair_coeff 3 49 0.000000e+00 0.000000e+00 1.721862e+03 # SC2-SC26 type=non-native eps=0.002390 sigma=3.077042
pair_coeff 3 50 0.000000e+00 0.000000e+00 2.286802e+04 # SC2-CA27 type=non-native eps=0.002390 sigma=3.817121
pair_coeff 3 51 0.000000e+00 0.000000e+00 5.795236e+03 # SC2-SC27 type=non-native eps=0.002390 sigma=3.404522
pair_coeff 3 52 0.000000e+00 0.000000e+00 2.286802e+04 # SC2-CA28 type=non-native eps=0.002390 sigma=3.817121
pair_coeff 3 53 0.000000e+00 0.000000e+00 2.286802e+04 # SC2-SC28 type=non-native eps=0.002390 sigma=3.817121
pair_coeff 3 54 0.000000e+00 0.000000e+00 2.286802e+04 # SC2-CA29 type=non-native eps=0.002390 sigma=3.817121
pair_coeff 3 55 0.000000e+00 0.000000e+00 2.286802e+04 # SC2-SC29 type=non-native eps=0.002390 sigma=3.817121
pair_coeff 3 56 0.000000e+00 0.000000e+00 2.286802e+04 # SC2-CA30 type=non-native eps=0.002390 sigma=3.817121
pair_coeff 3 57 0.000000e+00 0.000000e+00 2.286802e+04 # SC2-SC30 type=non-native eps=0.002390 sigma=3.817121
pair_coeff 3 58 0.000000e+00 0.000000e+00 2.286802e+04 # SC2-CA31 type=non-native eps=0.002390 sigma=3.817121
pair_coeff 3 59 0.000000e+00 0.000000e+00 1.058342e+05 # SC2-SC31 type=non-native eps=0.002390 sigma=4.336963
pair_coeff 3 60 0.000000e+00 0.000000e+00 2.286802e+04 # SC2-CA32 type=non-native eps=0.002390 sigma=3.817121
pair_coeff 3 61 0.000000e+00 0.000000e+00 5.496954e+04 # SC2-SC32 type=non-native eps=0.002390 sigma=4.106549
pair_coeff 3 62 0.000000e+00 0.000000e+00 2.286802e+04 # SC2-CA33 type=non-native eps=0.002390 sigma=3.817121
pair_coeff 3 63 0.000000e+00 0.000000e+00 5.795236e+03 # SC2-SC33 type=non-native eps=0.002390 sigma=3.404522
pair_coeff 3 64 0.000000e+00 0.000000e+00 2.286802e+04 # SC2-CA34 type=non-native eps=0.002390 sigma=3.817121
pair_coeff 3 65 0.000000e+00 0.000000e+00 7.782318e+04 # SC2-SC34 type=non-native eps=0.002390 sigma=4.227263
pair_coeff 3 66 0.000000e+00 0.000000e+00 2.286802e+04 # SC2-CA35 type=non-native eps=0.002390 sigma=3.817121
pair_coeff 3 67 0.000000e+00 0.000000e+00 1.721862e+03 # SC2-SC35 type=non-native eps=0.002390 sigma=3.077042
pair_coeff 3 68 0.000000e+00 0.000000e+00 2.286802e+04 # SC2-CA36 type=non-native eps=0.002390 sigma=3.817121
pair_coeff 3 69 0.000000e+00 0.000000e+00 2.286802e+04 # SC2-SC36 type=non-native eps=0.002390 sigma=3.817121
pair_coeff 3 70 0.000000e+00 0.000000e+00 2.286802e+04 # SC2-CA37 type=non-native eps=0.002390 sigma=3.817121
pair_coeff 3 71 0.000000e+00 0.000000e+00 3.680656e+04 # SC2-SC37 type=non-native eps=0.002390 sigma=3.971555
pair_coeff 3 72 0.000000e+00 0.000000e+00 2.286802e+04 # SC2-CA38 type=non-native eps=0.002390 sigma=3.817121
pair_coeff 3 73 0.000000e+00 0.000000e+00 1.268711e+04 # SC2-SC38 type=non-native eps=0.002390 sigma=3.634241
pair_coeff 3 74 0.000000e+00 0.000000e+00 2.286802e+04 # SC2-CA39 type=non-native eps=0.002390 sigma=3.817121
pair_coeff 3 75 0.000000e+00 0.000000e+00 1.268711e+04 # SC2-SC39 type=non-native eps=0.002390 sigma=3.634241
pair_coeff 3 76 0.000000e+00 0.000000e+00 2.286802e+04 # SC2-CA40 type=non-native eps=0.002390 sigma=3.817121
pair_coeff 3 77 0.000000e+00 0.000000e+00 7.782318e+04 # SC2-SC40 type=non-native eps=0.002390 sigma=4.227263
pair_coeff 3 78 0.000000e+00 0.000000e+00 2.286802e+04 # SC2-CA41 type=non-native eps=0.002390 sigma=3.817121
pair_coeff 3 79 0.000000e+00 0.000000e+00 1.721862e+03 # SC2-SC41 type=non-native eps=0.002390 sigma=3.077042
pair_coeff 3 80 0.000000e+00 0.000000e+00 2.286802e+04 # SC2-CA42 type=non-native eps=0.002390 sigma=3.817121
pair_coeff 3 81 0.000000e+00 0.000000e+00 7.782318e+04 # SC2-SC42 type=non-native eps=0.002390 sigma=4.227263
pair_coeff 3 82 0.000000e+00 0.000000e+00 2.286802e+04 # SC2-CA43 type=non-native eps=0.002390 sigma=3.817121
pair_coeff 3 83 0.000000e+00 0.000000e+00 3.680656e+04 # SC2-SC43 type=non-native eps=0.002390 sigma=3.971555
pair_coeff 3 84 0.000000e+00 0.000000e+00 2.286802e+04 # SC2-CA44 type=non-native eps=0.002390 sigma=3.817121
pair_coeff 3 85 0.000000e+00 0.000000e+00 3.680656e+04 # SC2-SC44 type=non-native eps=0.002390 sigma=3.971555
pair_coeff 3 86 0.000000e+00 0.000000e+00 2.286802e+04 # SC2-CA45 type=non-native eps=0.002390 sigma=3.817121
pair_coeff 3 87 0.000000e+00 0.000000e+00 2.286802e+04 # SC2-SC45 type=non-native eps=0.002390 sigma=3.817121
pair_coeff 3 88 0.000000e+00 0.000000e+00 2.286802e+04 # SC2-CA46 type=non-native eps=0.002390 sigma=3.817121
pair_coeff 3 89 0.000000e+00 0.000000e+00 1.268711e+04 # SC2-SC46 type=non-native eps=0.002390 sigma=3.634241
pair_coeff 3 90 0.000000e+00 0.000000e+00 2.286802e+04 # SC2-CA47 type=non-native eps=0.002390 sigma=3.817121
pair_coeff 3 91 0.000000e+00 0.000000e+00 1.721862e+03 # SC2-SC47 type=non-native eps=0.002390 sigma=3.077042
pair_coeff 3 92 0.000000e+00 0.000000e+00 2.286802e+04 # SC2-CA48 type=non-native eps=0.002390 sigma=3.817121
pair_coeff 3 93 0.000000e+00 0.000000e+00 2.286802e+04 # SC2-CA49 type=non-native eps=0.002390 sigma=3.817121
pair_coeff 3 94 0.000000e+00 0.000000e+00 1.268711e+04 # SC2-SC49 type=non-native eps=0.002390 sigma=3.634241
pair_coeff 3 95 0.000000e+00 0.000000e+00 2.286802e+04 # SC2-CA50 type=non-native eps=0.002390 sigma=3.817121
pair_coeff 3 96 0.000000e+00 0.000000e+00 2.286802e+04 # SC2-SC50 type=non-native eps=0.002390 sigma=3.817121
pair_coeff 3 97 0.000000e+00 0.000000e+00 2.286802e+04 # SC2-CA51 type=non-native eps=0.002390 sigma=3.817121
pair_coeff 3 98 0.000000e+00 0.000000e+00 1.058342e+05 # SC2-SC51 type=non-native eps=0.002390 sigma=4.336963
pair_coeff 3 99 0.000000e+00 0.000000e+00 2.286802e+04 # SC2-CA52 type=non-native eps=0.002390 sigma=3.817121
pair_coeff 3 100 0.000000e+00 0.000000e+00 7.782318e+04 # SC2-SC52 type=non-native eps=0.002390 sigma=4.227263
pair_coeff 3 101 0.000000e+00 0.000000e+00 2.286802e+04 # SC2-CA53 type=non-native eps=0.002390 sigma=3.817121
pair_coeff 3 102 0.000000e+00 0.000000e+00 2.286802e+04 # SC2-SC53 type=non-native eps=0.002390 sigma=3.817121
pair_coeff 3 103 0.000000e+00 0.000000e+00 2.286802e+04 # SC2-CA54 type=non-native eps=0.002390 sigma=3.817121
pair_coeff 3 104 0.000000e+00 0.000000e+00 2.286802e+04 # SC2-SC54 type=non-native eps=0.002390 sigma=3.817121
pair_coeff 3 105 0.000000e+00 0.000000e+00 2.286802e+04 # SC2-CA55 type=non-native eps=0.002390 sigma=3.817121
pair_coeff 3 106 0.000000e+00 0.000000e+00 1.268711e+04 # SC2-SC55 type=non-native eps=0.002390 sigma=3.634241
pair_coeff 3 107 0.000000e+00 0.000000e+00 2.286802e+04 # SC2-CA56 type=non-native eps=0.002390 sigma=3.817121
pair_coeff 3 108 0.000000e+00 0.000000e+00 3.680656e+04 # SC2-SC56 type=non-native eps=0.002390 sigma=3.971555
pair_coeff 3 109 0.000000e+00 0.000000e+00 2.286802e+04 # SC2-CA57 type=non-native eps=0.002390 sigma=3.817121
pair_coeff 3 110 0.000000e+00 0.000000e+00 2.286802e+04 # SC2-SC57 type=non-native eps=0.002390 sigma=3.817121
pair_coeff 3 111 0.000000e+00 0.000000e+00 2.286802e+04 # SC2-CA58 type=non-native eps=0.002390 sigma=3.817121
pair_coeff 3 112 0.000000e+00 0.000000e+00 2.286802e+04 # SC2-CA59 type=non-native eps=0.002390 sigma=3.817121
pair_coeff 3 113 0.000000e+00 0.000000e+00 7.782318e+04 # SC2-SC59 type=non-native eps=0.002390 sigma=4.227263
pair_coeff 3 114 0.000000e+00 0.000000e+00 2.286802e+04 # SC2-CA60 type=non-native eps=0.002390 sigma=3.817121
pair_coeff 3 115 0.000000e+00 0.000000e+00 1.268711e+04 # SC2-SC60 type=non-native eps=0.002390 sigma=3.634241
pair_coeff 3 116 0.000000e+00 0.000000e+00 2.286802e+04 # SC2-CA61 type=non-native eps=0.002390 sigma=3.817121
pair_coeff 3 117 0.000000e+00 0.000000e+00 1.268711e+04 # SC2-SC61 type=non-native eps=0.002390 sigma=3.634241
pair_coeff 3 118 0.000000e+00 0.000000e+00 2.286802e+04 # SC2-CA62 type=non-native eps=0.002390 sigma=3.817121
pair_coeff 3 119 0.000000e+00 0.000000e+00 5.795236e+03 # SC2-SC62 type=non-native eps=0.002390 sigma=3.404522
pair_coeff 3 120 0.000000e+00 0.000000e+00 2.286802e+04 # SC2-CA63 type=non-native eps=0.002390 sigma=3.817121
pair_coeff 3 121 0.000000e+00 0.000000e+00 1.268711e+04 # SC2-SC63 type=non-native eps=0.002390 sigma=3.634241
pair_coeff 3 122 0.000000e+00 0.000000e+00 2.286802e+04 # SC2-CA64 type=non-native eps=0.002390 sigma=3.817121
pair_coeff 3 123 0.000000e+00 0.000000e+00 3.680656e+04 # SC2-SC64 type=non-native eps=0.002390 sigma=3.971555
pair_coeff 3 124 0.000000e+00 0.000000e+00 2.286802e+04 # SC2-CA65 type=non-native eps=0.002390 sigma=3.817121
pair_coeff 3 125 0.000000e+00 0.000000e+00 1.268711e+04 # SC2-SC65 type=non-native eps=0.002390 sigma=3.634241
pair_coeff 3 126 0.000000e+00 0.000000e+00 2.286802e+04 # SC2-CA66 type=non-native eps=0.002390 sigma=3.817121
pair_coeff 3 127 0.000000e+00 0.000000e+00 5.496954e+04 # SC2-SC66 type=non-native eps=0.002390 sigma=4.106549
pair_coeff 3 128 0.000000e+00 0.000000e+00 2.286802e+04 # SC2-CA67 type=non-native eps=0.002390 sigma=3.817121
pair_coeff 3 129 0.000000e+00 0.000000e+00 2.286802e+04 # SC2-SC67 type=non-native eps=0.002390 sigma=3.817121
pair_coeff 3 130 0.000000e+00 0.000000e+00 2.286802e+04 # SC2-CA68 type=non-native eps=0.002390 sigma=3.817121
pair_coeff 3 131 0.000000e+00 0.000000e+00 2.286802e+04 # SC2-SC68 type=non-native eps=0.002390 sigma=3.817121
pair_coeff 3 132 0.000000e+00 0.000000e+00 2.286802e+04 # SC2-CA69 type=non-native eps=0.002390 sigma=3.817121
pair_coeff 3 133 0.000000e+00 0.000000e+00 2.286802e+04 # SC2-SC69 type=non-native eps=0.002390 sigma=3.817121
pair_coeff 3 134 0.000000e+00 0.000000e+00 2.286802e+04 # SC2-CA70 type=non-native eps=0.002390 sigma=3.817121
pair_coeff 3 135 0.000000e+00 0.000000e+00 5.795236e+03 # SC2-SC70 type=non-native eps=0.002390 sigma=3.404522
pair_coeff 3 136 0.000000e+00 0.000000e+00 2.286802e+04 # SC2-CA71 type=non-native eps=0.002390 sigma=3.817121
pair_coeff 3 137 0.000000e+00 0.000000e+00 1.268711e+04 # SC2-SC71 type=non-native eps=0.002390 sigma=3.634241
pair_coeff 3 138 0.000000e+00 0.000000e+00 2.286802e+04 # SC2-CA72 type=non-native eps=0.002390 sigma=3.817121
pair_coeff 3 139 0.000000e+00 0.000000e+00 7.782318e+04 # SC2-SC72 type=non-native eps=0.002390 sigma=4.227263
pair_coeff 3 140 0.000000e+00 0.000000e+00 2.286802e+04 # SC2-CA73 type=non-native eps=0.002390 sigma=3.817121
pair_coeff 3 141 0.000000e+00 0.000000e+00 5.496954e+04 # SC2-SC73 type=non-native eps=0.002390 sigma=4.106549
pair_coeff 3 142 0.000000e+00 0.000000e+00 2.286802e+04 # SC2-CA74 type=non-native eps=0.002390 sigma=3.817121
pair_coeff 3 143 0.000000e+00 0.000000e+00 2.286802e+04 # SC2-SC74 type=non-native eps=0.002390 sigma=3.817121
pair_coeff 3 144 0.000000e+00 0.000000e+00 2.286802e+04 # SC2-CA75 type=non-native eps=0.002390 sigma=3.817121
pair_coeff 3 145 0.000000e+00 0.000000e+00 3.680656e+04 # SC2-SC75 type=non-native eps=0.002390 sigma=3.971555
pair_coeff 3 146 0.000000e+00 0.000000e+00 2.286802e+04 # SC2-CA76 type=non-native eps=0.002390 sigma=3.817121
pair_coeff 3 147 0.000000e+00 0.000000e+00 1.268711e+04 # SC2-SC76 type=non-native eps=0.002390 sigma=3.634241
pair_coeff 3 148 0.000000e+00 0.000000e+00 2.286802e+04 # SC2-CA77 type=non-native eps=0.002390 sigma=3.817121
pair_coeff 3 149 0.000000e+00 0.000000e+00 5.496954e+04 # SC2-SC77 type=non-native eps=0.002390 sigma=4.106549
pair_coeff 3 150 0.000000e+00 0.000000e+00 2.286802e+04 # SC2-CA78 type=non-native eps=0.002390 sigma=3.817121
pair_coeff 3 151 0.000000e+00 0.000000e+00 2.286802e+04 # SC2-SC78 type=non-native eps=0.002390 sigma=3.817121
pair_coeff 3 152 0.000000e+00 0.000000e+00 2.286802e+04 # SC2-CA79 type=non-native eps=0.002390 sigma=3.817121
pair_coeff 3 153 0.000000e+00 0.000000e+00 3.680656e+04 # SC2-SC79 type=non-native eps=0.002390 sigma=3.971555
pair_coeff 3 154 0.000000e+00 0.000000e+00 2.286802e+04 # SC2-CA80 type=non-native eps=0.002390 sigma=3.817121
pair_coeff 3 155 0.000000e+00 0.000000e+00 7.782318e+04 # SC2-SC80 type=non-native eps=0.002390 sigma=4.227263
pair_coeff 3 156 0.000000e+00 0.000000e+00 2.286802e+04 # SC2-CA81 type=non-native eps=0.002390 sigma=3.817121
pair_coeff 3 157 0.000000e+00 0.000000e+00 3.680656e+04 # SC2-SC81 type=non-native eps=0.002390 sigma=3.971555
pair_coeff 3 158 0.000000e+00 0.000000e+00 2.286802e+04 # SC2-CA82 type=non-native eps=0.002390 sigma=3.817121
pair_coeff 3 159 0.000000e+00 0.000000e+00 1.721862e+03 # SC2-SC82 type=non-native eps=0.002390 sigma=3.077042
pair_coeff 3 160 0.000000e+00 0.000000e+00 2.286802e+04 # SC2-CA83 type=non-native eps=0.002390 sigma=3.817121
pair_coeff 3 161 0.000000e+00 0.000000e+00 7.782318e+04 # SC2-SC83 type=non-native eps=0.002390 sigma=4.227263
pair_coeff 3 162 0.000000e+00 0.000000e+00 2.286802e+04 # SC2-CA84 type=non-native eps=0.002390 sigma=3.817121
pair_coeff 3 163 0.000000e+00 0.000000e+00 5.795236e+03 # SC2-SC84 type=non-native eps=0.002390 sigma=3.404522
pair_coeff 3 164 0.000000e+00 0.000000e+00 2.286802e+04 # SC2-CA85 type=non-native eps=0.002390 sigma=3.817121
pair_coeff 3 165 0.000000e+00 0.000000e+00 5.795236e+03 # SC2-SC85 type=non-native eps=0.002390 sigma=3.404522
pair_coeff 3 166 0.000000e+00 0.000000e+00 2.286802e+04 # SC2-CA86 type=non-native eps=0.002390 sigma=3.817121
pair_coeff 3 167 0.000000e+00 0.000000e+00 7.782318e+04 # SC2-SC86 type=non-native eps=0.002390 sigma=4.227263
pair_coeff 3 168 0.000000e+00 0.000000e+00 2.286802e+04 # SC2-CA87 type=non-native eps=0.002390 sigma=3.817121
pair_coeff 3 169 0.000000e+00 0.000000e+00 3.680656e+04 # SC2-SC87 type=non-native eps=0.002390 sigma=3.971555
pair_coeff 3 170 0.000000e+00 0.000000e+00 2.286802e+04 # SC2-CA88 type=non-native eps=0.002390 sigma=3.817121
pair_coeff 3 171 0.000000e+00 0.000000e+00 2.286802e+04 # SC2-SC88 type=non-native eps=0.002390 sigma=3.817121
pair_coeff 3 172 0.000000e+00 0.000000e+00 2.286802e+04 # SC2-CA89 type=non-native eps=0.002390 sigma=3.817121
pair_coeff 3 173 0.000000e+00 0.000000e+00 1.058342e+05 # SC2-SC89 type=non-native eps=0.002390 sigma=4.336963
pair_coeff 3 174 0.000000e+00 0.000000e+00 2.286802e+04 # SC2-CA90 type=non-native eps=0.002390 sigma=3.817121
pair_coeff 3 175 0.000000e+00 0.000000e+00 1.721862e+03 # SC2-SC90 type=non-native eps=0.002390 sigma=3.077042
pair_coeff 3 176 0.000000e+00 0.000000e+00 2.286802e+04 # SC2-CA91 type=non-native eps=0.002390 sigma=3.817121
pair_coeff 3 177 0.000000e+00 0.000000e+00 1.268711e+04 # SC2-SC91 type=non-native eps=0.002390 sigma=3.634241
pair_coeff 3 178 0.000000e+00 0.000000e+00 2.286802e+04 # SC2-CA92 type=non-native eps=0.002390 sigma=3.817121
pair_coeff 3 179 0.000000e+00 0.000000e+00 1.268711e+04 # SC2-SC92 type=non-native eps=0.002390 sigma=3.634241
pair_coeff 3 180 0.000000e+00 0.000000e+00 2.286802e+04 # SC2-CA93 type=non-native eps=0.002390 sigma=3.817121
pair_coeff 3 181 0.000000e+00 0.000000e+00 1.792032e+05 # SC2-SC93 type=non-native eps=0.002390 sigma=4.531538
pair_coeff 3 182 0.000000e+00 0.000000e+00 2.286802e+04 # SC2-CA94 type=non-native eps=0.002390 sigma=3.817121
pair_coeff 3 183 0.000000e+00 0.000000e+00 3.680656e+04 # SC2-SC94 type=non-native eps=0.002390 sigma=3.971555
pair_coeff 3 184 0.000000e+00 0.000000e+00 2.286802e+04 # SC2-CA95 type=non-native eps=0.002390 sigma=3.817121
pair_coeff 3 185 0.000000e+00 0.000000e+00 2.286802e+04 # SC2-CA96 type=non-native eps=0.002390 sigma=3.817121
pair_coeff 3 186 0.000000e+00 0.000000e+00 1.268711e+04 # SC2-SC96 type=non-native eps=0.002390 sigma=3.634241
pair_coeff 3 187 0.000000e+00 0.000000e+00 2.286802e+04 # SC2-CA97 type=non-native eps=0.002390 sigma=3.817121
pair_coeff 3 188 0.000000e+00 0.000000e+00 2.286802e+04 # SC2-SC97 type=non-native eps=0.002390 sigma=3.817121
pair_coeff 3 189 0.000000e+00 0.000000e+00 2.286802e+04 # SC2-CA98 type=non-native eps=0.002390 sigma=3.817121
pair_coeff 3 190 0.000000e+00 0.000000e+00 1.268711e+04 # SC2-SC98 type=non-native eps=0.002390 sigma=3.634241
pair_coeff 3 191 0.000000e+00 0.000000e+00 2.286802e+04 # SC2-CA99 type=non-native eps=0.002390 sigma=3.817121
pair_coeff 3 192 0.000000e+00 0.000000e+00 2.286802e+04 # SC2-SC99 type=non-native eps=0.002390 sigma=3.817121
pair_coeff 3 193 0.000000e+00 0.000000e+00 2.286802e+04 # SC2-CA100 type=non-native eps=0.002390 sigma=3.817121
pair_coeff 3 194 0.000000e+00 0.000000e+00 5.795236e+03 # SC2-SC100 type=non-native eps=0.002390 sigma=3.404522
pair_coeff 3 195 0.000000e+00 0.000000e+00 2.286802e+04 # SC2-CA101 type=non-native eps=0.002390 sigma=3.817121
pair_coeff 3 196 0.000000e+00 0.000000e+00 3.680656e+04 # SC2-SC101 type=non-native eps=0.002390 sigma=3.971555
pair_coeff 3 197 0.000000e+00 0.000000e+00 2.286802e+04 # SC2-CA102 type=non-native eps=0.002390 sigma=3.817121
pair_coeff 3 198 0.000000e+00 0.000000e+00 5.795236e+03 # SC2-SC102 type=non-native eps=0.002390 sigma=3.404522
pair_coeff 3 199 0.000000e+00 0.000000e+00 2.286802e+04 # SC2-CA103 type=non-native eps=0.002390 sigma=3.817121
pair_coeff 3 200 0.000000e+00 0.000000e+00 1.268711e+04 # SC2-SC103 type=non-native eps=0.002390 sigma=3.634241
pair_coeff 3 201 0.000000e+00 0.000000e+00 2.286802e+04 # SC2-CA104 type=non-native eps=0.002390 sigma=3.817121
pair_coeff 3 202 0.000000e+00 0.000000e+00 5.795236e+03 # SC2-SC104 type=non-native eps=0.002390 sigma=3.404522
pair_coeff 3 203 0.000000e+00 0.000000e+00 2.286802e+04 # SC2-CA105 type=non-native eps=0.002390 sigma=3.817121
pair_coeff 3 204 0.000000e+00 0.000000e+00 3.680656e+04 # SC2-SC105 type=non-native eps=0.002390 sigma=3.971555
pair_coeff 3 205 0.000000e+00 0.000000e+00 2.286802e+04 # SC2-CA106 type=non-native eps=0.002390 sigma=3.817121
pair_coeff 3 206 0.000000e+00 0.000000e+00 2.286802e+04 # SC2-SC106 type=non-native eps=0.002390 sigma=3.817121
pair_coeff 3 207 0.000000e+00 0.000000e+00 2.286802e+04 # SC2-CA107 type=non-native eps=0.002390 sigma=3.817121
pair_coeff 3 208 0.000000e+00 0.000000e+00 5.795236e+03 # SC2-SC107 type=non-native eps=0.002390 sigma=3.404522
pair_coeff 4 4 0.000000e+00 0.000000e+00 4.009755e+04 # CA3-CA3 type=non-native eps=0.002390 sigma=4.000000
pair_coeff 4 5 0.000000e+00 0.000000e+00 4.009755e+04 # CA3-SC3 type=non-native eps=0.002390 sigma=4.000000
pair_coeff 4 6 0.000000e+00 0.000000e+00 4.009755e+04 # CA3-CA4 type=non-native eps=0.002390 sigma=4.000000
pair_coeff 4 7 0.000000e+00 0.000000e+00 4.009755e+04 # CA3-SC4 type=non-native eps=0.002390 sigma=4.000000
pair_coeff 4 8 0.000000e+00 0.000000e+00 4.009755e+04 # CA3-CA5 type=non-native eps=0.002390 sigma=4.000000
pair_coeff 4 9 0.000000e+00 0.000000e+00 3.442571e+03 # CA3-SC5 type=non-native eps=0.002390 sigma=3.259921
pair_coeff 4 10 0.000000e+00 0.000000e+00 4.009755e+04 # CA3-CA6 type=non-native eps=0.002390 sigma=4.000000
pair_coeff 4 11 0.000000e+00 0.000000e+00 1.085818e+04 # CA3-SC6 type=non-native eps=0.002390 sigma=3.587401
pair_coeff 4 12 0.000000e+00 0.000000e+00 4.009755e+04 # CA3-CA7 type=non-native eps=0.002390 sigma=4.000000
pair_coeff 4 13 0.000000e+00 0.000000e+00 2.286802e+04 # CA3-SC7 type=non-native eps=0.002390 sigma=3.817121
pair_coeff 4 14 0.000000e+00 0.000000e+00 4.009755e+04 # CA3-CA8 type=non-native eps=0.002390 sigma=4.000000
pair_coeff 4 15 0.000000e+00 0.000000e+00 6.317440e+04 # CA3-SC8 type=non-native eps=0.002390 sigma=4.154435
pair_coeff 4 16 0.000000e+00 0.000000e+00 4.009755e+04 # CA3-CA9 type=non-native eps=0.002390 sigma=4.000000
pair_coeff 4 17 0.000000e+00 0.000000e+00 6.317440e+04 # CA3-SC9 type=non-native eps=0.002390 sigma=4.154435
pair_coeff 4 18 0.000000e+00 0.000000e+00 4.009755e+04 # CA3-CA10 type=non-native eps=0.002390 sigma=4.000000
pair_coeff 4 19 0.000000e+00 0.000000e+00 6.317440e+04 # CA3-SC10 type=non-native eps=0.002390 sigma=4.154435
pair_coeff 4 20 0.000000e+00 0.000000e+00 4.009755e+04 # CA3-CA11 type=non-native eps=0.002390 sigma=4.000000
pair_coeff 4 21 0.000000e+00 0.000000e+00 4.009755e+04 # CA3-CA12 type=non-native eps=0.002390 sigma=4.000000
pair_coeff 4 22 0.000000e+00 0.000000e+00 2.286802e+04 # CA3-SC12 type=non-native eps=0.002390 sigma=3.817121
pair_coeff 4 23 0.000000e+00 0.000000e+00 4.009755e+04 # CA3-CA13 type=non-native eps=0.002390 sigma=4.000000
pair_coeff 4 24 0.000000e+00 0.000000e+00 1.293687e+05 # CA3-SC13 type=non-native eps=0.002390 sigma=4.410142
pair_coeff 4 25 0.000000e+00 0.000000e+00 4.009755e+04 # CA3-CA14 type=non-native eps=0.002390 sigma=4.000000
pair_coeff 4 26 0.000000e+00 0.000000e+00 1.293687e+05 # CA3-SC14 type=non-native eps=0.002390 sigma=4.410142
pair_coeff 4 27 0.000000e+00 0.000000e+00 4.009755e+04 # CA3-CA15 type=non-native eps=0.002390 sigma=4.000000
pair_coeff 4 28 0.000000e+00 0.000000e+00 3.442571e+03 # CA3-SC15 type=non-native eps=0.002390 sigma=3.259921
pair_coeff 4 29 0.000000e+00 0.000000e+00 4.009755e+04 # CA3-CA16 type=non-native eps=0.002390 sigma=4.000000
pair_coeff 4 30 0.000000e+00 0.000000e+00 4.009755e+04 # CA3-SC16 type=non-native eps=0.002390 sigma=4.000000
pair_coeff 4 31 0.000000e+00 0.000000e+00 4.009755e+04 # CA3-CA17 type=non-native eps=0.002390 sigma=4.000000
pair_coeff 4 32 0.000000e+00 0.000000e+00 4.009755e+04 # CA3-SC17 type=non-native eps=0.002390 sigma=4.000000
pair_coeff 4 33 0.000000e+00 0.000000e+00 4.009755e+04 # CA3-CA18 type=non-native eps=0.002390 sigma=4.000000
pair_coeff 4 34 0.000000e+00 0.000000e+00 1.293687e+05 # CA3-SC18 type=non-native eps=0.002390 sigma=4.410142
pair_coeff 4 35 0.000000e+00 0.000000e+00 4.009755e+04 # CA3-CA19 type=non-native eps=0.002390 sigma=4.000000
pair_coeff 4 36 0.000000e+00 0.000000e+00 3.442571e+03 # CA3-SC19 type=non-native eps=0.002390 sigma=3.259921
pair_coeff 4 37 0.000000e+00 0.000000e+00 4.009755e+04 # CA3-CA20 type=non-native eps=0.002390 sigma=4.000000
pair_coeff 4 38 0.000000e+00 0.000000e+00 2.286802e+04 # CA3-SC20 type=non-native eps=0.002390 sigma=3.817121
pair_coeff 4 39 0.000000e+00 0.000000e+00 4.009755e+04 # CA3-CA21 type=non-native eps=0.002390 sigma=4.000000
pair_coeff 4 40 0.000000e+00 0.000000e+00 4.009755e+04 # CA3-CA22 type=non-native eps=0.002390 sigma=4.000000
pair_coeff 4 41 0.000000e+00 0.000000e+00 6.317440e+04 # CA3-SC22 type=non-native eps=0.002390 sigma=4.154435
pair_coeff 4 42 0.000000e+00 0.000000e+00 4.009755e+04 # CA3-CA23 type=non-native eps=0.002390 sigma=4.000000
pair_coeff 4 43 0.000000e+00 0.000000e+00 1.737309e+05 # CA3-SC23 type=non-native eps=0.002390 sigma=4.519842
pair_coeff 4 44 0.000000e+00 0.000000e+00 4.009755e+04 # CA3-CA24 type=non-native eps=0.002390 sigma=4.000000
pair_coeff 4 45 0.000000e+00 0.000000e+00 4.009755e+04 # CA3-SC24 type=non-native eps=0.002390 sigma=4.000000
pair_coeff 4 46 0.000000e+00 0.000000e+00 4.009755e+04 # CA3-CA25 type=non-native eps=0.002390 sigma=4.000000
pair_coeff 4 47 0.000000e+00 0.000000e+00 6.317440e+04 # CA3-SC25 type=non-native eps=0.002390 sigma=4.154435
pair_coeff 4 48 0.000000e+00 0.000000e+00 4.009755e+04 # CA3-CA26 type=non-native eps=0.002390 sigma=4.000000
pair_coeff 4 49 0.000000e+00 0.000000e+00 3.442571e+03 # CA3-SC26 type=non-native eps=0.002390 sigma=3.259921
pair_coeff 4 50 0.000000e+00 0.000000e+00 4.009755e+04 # CA3-CA27 type=non-native eps=0.002390 sigma=4.000000
pair_coeff 4 51 0.000000e+00 0.000000e+00 1.085818e+04 # CA3-SC27 type=non-native eps=0.002390 sigma=3.587401
pair_coeff 4 52 0.000000e+00 0.000000e+00 4.009755e+04 # CA3-CA28 type=non-native eps=0.002390 sigma=4.000000
pair_coeff 4 53 0.000000e+00 0.000000e+00 4.009755e+04 # CA3-SC28 type=non-native eps=0.002390 sigma=4.000000
pair_coeff 4 54 0.000000e+00 0.000000e+00 4.009755e+04 # CA3-CA29 type=non-native eps=0.002390 sigma=4.000000
pair_coeff 4 55 0.000000e+00 0.000000e+00 4.009755e+04 # CA3-SC29 type=non-native eps=0.002390 sigma=4.000000
pair_coeff 4 56 0.000000e+00 0.000000e+00 4.009755e+04 # CA3-CA30 type=non-native eps=0.002390 sigma=4.000000
pair_coeff 4 57 0.000000e+00 0.000000e+00 4.009755e+04 # CA3-SC30 type=non-native eps=0.002390 sigma=4.000000
pair_coeff 4 58 0.000000e+00 0.000000e+00 4.009755e+04 # CA3-CA31 type=non-native eps=0.002390 sigma=4.000000
pair_coeff 4 59 0.000000e+00 0.000000e+00 1.737309e+05 # CA3-SC31 type=non-native eps=0.002390 sigma=4.519842
pair_coeff 4 60 0.000000e+00 0.000000e+00 4.009755e+04 # CA3-CA32 type=non-native eps=0.002390 sigma=4.000000
pair_coeff 4 61 0.000000e+00 0.000000e+00 9.272377e+04 # CA3-SC32 type=non-native eps=0.002390 sigma=4.289428
pair_coeff 4 62 0.000000e+00 0.000000e+00 4.009755e+04 # CA3-CA33 type=non-native eps=0.002390 sigma=4.000000
pair_coeff 4 63 0.000000e+00 0.000000e+00 1.085818e+04 # CA3-SC33 type=non-native eps=0.002390 sigma=3.587401
pair_coeff 4 64 0.000000e+00 0.000000e+00 4.009755e+04 # CA3-CA34 type=non-native eps=0.002390 sigma=4.000000
pair_coeff 4 65 0.000000e+00 0.000000e+00 1.293687e+05 # CA3-SC34 type=non-native eps=0.002390 sigma=4.410142
pair_coeff 4 66 0.000000e+00 0.000000e+00 4.009755e+04 # CA3-CA35 type=non-native eps=0.002390 sigma=4.000000
pair_coeff 4 67 0.000000e+00 0.000000e+00 3.442571e+03 # CA3-SC35 type=non-native eps=0.002390 sigma=3.259921
pair_coeff 4 68 0.000000e+00 0.000000e+00 4.009755e+04 # CA3-CA36 type=non-native eps=0.002390 sigma=4.000000
pair_coeff 4 69 0.000000e+00 0.000000e+00 4.009755e+04 # CA3-SC36 type=non-native eps=0.002390 sigma=4.000000
pair_coeff 4 70 0.000000e+00 0.000000e+00 4.009755e+04 # CA3-CA37 type=non-native eps=0.002390 sigma=4.000000
pair_coeff 4 71 0.000000e+00 0.000000e+00 6.317440e+04 # CA3-SC37 type=non-native eps=0.002390 sigma=4.154435
pair_coeff 4 72 0.000000e+00 0.000000e+00 4.009755e+04 # CA3-CA38 type=non-native eps=0.002390 sigma=4.000000
pair_coeff 4 73 0.000000e+00 0.000000e+00 2.286802e+04 # CA3-SC38 type=non-native eps=0.002390 sigma=3.817121
pair_coeff 4 74 0.000000e+00 0.000000e+00 4.009755e+04 # CA3-CA39 type=non-native eps=0.002390 sigma=4.000000
pair_coeff 4 75 0.000000e+00 0.000000e+00 2.286802e+04 # CA3-SC39 type=non-native eps=0.002390 sigma=3.817121
pair_coeff 4 76 0.000000e+00 0.000000e+00 4.009755e+04 # CA3-CA40 type=non-native eps=0.002390 sigma=4.000000
pair_coeff 4 77 0.000000e+00 0.000000e+00 1.293687e+05 # CA3-SC40 type=non-native eps=0.002390 sigma=4.410142
pair_coeff 4 78 0.000000e+00 0.000000e+00 4.009755e+04 # CA3-CA41 type=non-native eps=0.002390 sigma=4.000000
pair_coeff 4 79 0.000000e+00 0.000000e+00 3.442571e+03 # CA3-SC41 type=non-native eps=0.002390 sigma=3.259921
pair_coeff 4 80 0.000000e+00 0.000000e+00 4.009755e+04 # CA3-CA42 type=non-native eps=0.002390 sigma=4.000000
pair_coeff 4 81 0.000000e+00 0.000000e+00 1.293687e+05 # CA3-SC42 type=non-native eps=0.002390 sigma=4.410142
pair_coeff 4 82 0.000000e+00 0.000000e+00 4.009755e+04 # CA3-CA43 type=non-native eps=0.002390 sigma=4.000000
pair_coeff 4 83 0.000000e+00 0.000000e+00 6.317440e+04 # CA3-SC43 type=non-native eps=0.002390 sigma=4.154435
pair_coeff 4 84 0.000000e+00 0.000000e+00 4.009755e+04 # CA3-CA44 type=non-native eps=0.002390 sigma=4.000000
pair_coeff 4 85 0.000000e+00 0.000000e+00 6.317440e+04 # CA3-SC44 type=non-native eps=0.002390 sigma=4.154435
pair_coeff 4 86 0.000000e+00 0.000000e+00 4.009755e+04 # CA3-CA45 type=non-native eps=0.002390 sigma=4.000000
pair_coeff 4 87 0.000000e+00 0.000000e+00 4.009755e+04 # CA3-SC45 type=non-native eps=0.002390 sigma=4.000000
pair_coeff 4 88 0.000000e+00 0.000000e+00 4.009755e+04 # CA3-CA46 type=non-native eps=0.002390 sigma=4.000000
pair_coeff 4 89 0.000000e+00 0.000000e+00 2.286802e+04 # CA3-SC46 type=non-native eps=0.002390 sigma=3.817121
pair_coeff 4 90 0.000000e+00 0.000000e+00 4.009755e+04 # CA3-CA47 type=non-native eps=0.002390 sigma=4.000000
pair_coeff 4 91 0.000000e+00 0.000000e+00 3.442571e+03 # CA3-SC47 type=non-native eps=0.002390 sigma=3.259921
pair_coeff 4 92 0.000000e+00 0.000000e+00 4.009755e+04 # CA3-CA48 type=non-native eps=0.002390 sigma=4.000000
pair_coeff 4 93 0.000000e+00 0.000000e+00 4.009755e+04 # CA3-CA49 type=non-native eps=0.002390 sigma=4.000000
[...]
 4788000    31.482339    10.672029   -8.9460514    5.7556656    8.2103106    5.6521042 
 4789000    33.157981    8.2976422   -9.0075217    5.6944026    7.3262744    4.2844868 
 4790000    30.928583    9.8415067   -9.1037855     5.958386    8.0157912     4.971115 
 4791000    33.349898    10.198679   -9.0896374    5.2499671    8.3230798    5.7152695 
 4792000    31.998465    11.523823   -9.2617748    5.7389524    8.9247626    6.1218829 
 4793000    32.732994    10.323536   -9.2515675     5.495551    7.9232251    6.1563269 
 4794000    29.784762    10.371887   -8.7811731    5.7728991     8.140612    5.2395489 
 4795000    30.333052    10.526055   -9.3634772    6.5582667    7.5094454    5.8218198 
 4796000    32.190285    10.638815   -8.8820347    7.4650279    7.9342065    4.1216157 
 4797000    32.687974    10.813345   -9.2736328    7.5085582    7.0171246    5.5612949 
 4798000    32.480618    9.7512951   -9.5303045    7.6276256    6.8515301    4.8024439 
 4799000    32.113687    9.4516177   -9.3615048    6.1678127    7.4069377    5.2383722 
 4800000    34.107393    11.198905   -9.3696974    6.8123681    8.5109623    5.2452721 
 4801000    33.719181    10.638679   -9.3446212    7.0639538    6.4278444    6.4915017 
 4802000    33.144702    9.2359905   -9.3038914     6.698942    7.7090713    4.1318686 
 4803000    31.422254    9.8524789   -9.1982017    5.7599133    8.2012738    5.0894936 
 4804000    30.727933    10.708649   -9.3896517    7.4070492     7.177723    5.5135288 
 4805000    32.707634    8.0846733   -9.1350314    5.5763685    7.3955731     4.247763 
 4806000     30.30753    9.9668136   -9.3193966    6.2942924    8.0441304    4.9477874 
 4807000     30.33327    10.116317   -9.5361584    6.5904482    8.5967192    4.4653081 
 4808000    32.735657    8.5432078   -9.3170456     6.046175    8.0415452    3.7725332 
 4809000    29.907974    9.1736639    -9.327799    6.7318179    7.2164157    4.5532293 
 4810000    29.333059    10.342078   -9.3038425    6.5252054    7.4542114     5.666504 
 4811000    35.440889    10.306191   -9.2134825    6.9312962    7.9289426    4.6594347 
 4812000    35.024142    10.018508   -9.4095081    6.3013072    7.8548823    5.2718265 
 4813000    33.686685    9.5285346   -9.3372317    6.9901854    6.8048972    5.0706837 
 4814000    32.657407    9.6024562   -9.4756147    6.3478779    7.9813124    4.7488806 
 4815000    31.211902    10.460078   -8.8463009     6.637082    7.6624149    5.0068823 
 4816000    35.184239    9.7498078   -9.4341902    6.1634401    8.3205421    4.7000159 
 4817000    34.263262    10.427149    -9.206305    6.0349633     8.421384    5.1771065 
 4818000    35.567883    9.7411984   -9.1485868    6.5336263    7.3811623    4.9749966 
 4819000    34.496219    11.104125    -9.192306    7.4724878    8.0007214    4.8232213 
 4820000     32.22781    13.474855   -9.0947363    8.5765377    8.3578337    5.6352202 
 4821000    33.251089    12.729984   -9.1479479      8.50959     8.477258    4.8910844 
 4822000    32.573049    11.234548   -9.1459228    6.7723083    7.8820164    5.7261466 
 4823000    31.040411    11.505153   -9.3673497    7.7593026    8.2987428     4.814457 
 4824000    30.763572    11.110887   -9.4860006    7.3130048     8.485269    4.7986142 
 4825000    35.939372    9.6116784    -9.303045    7.2235897    6.7895314    4.9016024 
 4826000    31.856873    10.768276   -9.3664214    7.4967091    8.4937548    4.1442338 
 4827000    33.192528    10.067468   -9.1959263    6.5801909    7.8480284    4.8351753 
 4828000    29.806356    10.299127   -9.1943201    7.4885705    7.9341193    4.0707575 
 4829000    32.362299    8.8646104   -9.1755815    6.4793624    6.6234539    4.9373756 
 4830000    29.956242    9.5435601   -9.2804343    6.1400548    6.9103694    5.7735702 
 4831000    32.415878    9.7302926   -9.2902181    7.6117273    6.9626902    4.4460932 
 4832000    31.341685    10.081918   -9.3206889    7.2881701      7.70487    4.4095673 
 4833000    31.493999    10.339081   -9.0658826    6.2209438    7.7218099    5.4622095 
 4834000    28.910292    9.7322063   -9.3641314    6.7418215    7.4880095    4.8665067 
 4835000    30.658481    9.2915038    -9.381512     6.226592    7.6147923    4.8316315 
 4836000    31.222994    10.603795   -9.0787057    6.1744593    7.9094415    5.5986001 
 4837000    32.966524    9.5477514   -9.2878581    5.5903234    8.3010838    4.9442023 
 4838000     34.41574    7.8095989   -9.3916303     5.826845    7.5879995    3.7863847 
 4839000    30.984459    10.309591   -9.4128989    6.8003961    8.3497408    4.5723531 
 4840000    32.367222    9.6239446   -9.4726525    6.6603256     6.867436    5.5688355 
 4841000    32.749581    9.5849064   -9.2035262    5.7246572    7.9539187    5.1098567 
 4842000    30.879961    11.322347   -9.3621752    6.3963511    8.4332598    5.8549114 
 4843000    31.606042    9.5497146   -9.2613665    5.5617783    8.1351399    5.1141628 
 4844000    32.203732    10.201737   -9.2859859    6.3184954    7.5613037    5.6079241 
 4845000    28.384975    10.611284   -9.4365074    7.2502834    7.6346971    5.1628109 
 4846000    29.532136    8.8591401   -9.4722675    5.7476945    7.5796684    5.0040447 
 4847000    31.437679     8.747542   -9.4980633    5.1251903    8.1001262    5.0202888 
 4848000    32.637819    9.5256907    -9.225913    6.1263942    6.9998055     5.625404 
 4849000    34.171236    9.8063984   -9.3585299    5.7586568    7.9447816    5.4614898 
 4850000     30.63195    11.767046   -9.2400075    5.9744663    8.5584412    6.4741464 
 4851000    32.986392    11.186145   -9.0641692    6.2863634    7.9313037     6.032647 
 4852000    33.635652     12.76406   -8.7358868    6.8368971    9.0226791    5.6403704 
 4853000     33.17831    10.392465   -8.9257771    7.3509884    6.8250321    5.1422216 
 4854000    34.441064    11.036521   -9.3886897    7.2781835    8.3413307    4.8056961 
 4855000    31.913505    10.368557   -9.0993728     7.567557    7.2771808     4.623192 
 4856000    32.466256    13.385782   -9.0631332    7.7741709    8.8650628     5.809681 
 4857000    35.688846    11.631783   -9.2012992    8.2742594    7.9170282     4.641795 
 4858000    33.788639    12.731368   -9.4805024    8.3770734    8.9581762    4.8766205 
 4859000    32.219838    12.302436   -9.4004684    7.7830694    8.8127886     5.107046 
 4860000    33.950103    10.938684    -9.372968    6.5899698    7.9178976    5.8037843 
 4861000    33.644763    10.174178   -9.0486453     6.596836    7.0881266    5.5378603 
 4862000    29.634493    10.778434   -9.1099817    6.0808171    8.7433249    5.0642732 
 4863000    28.325149     10.84117   -8.5142501    6.4715244    7.4857336    5.3981623 
 4864000    30.075876    10.238042   -9.0588339    6.4776655    7.9429446    4.8762656 
 4865000     32.52508    10.192277   -8.9737708    5.8850338    7.0899994    6.1910141 
 4866000    29.059778    11.004174   -9.1152667    6.2447933    8.1468043    5.7278426 
 4867000    33.187905    11.178722   -9.2227224    6.4481689    8.4672603    5.4860152 
 4868000    31.717945     9.554517   -9.3341729    6.0453762    7.6873534    5.1559603 
 4869000    34.045809    10.665572   -9.4297656    6.9881697    7.9721921    5.1349756 
 4870000    31.885748    10.266511   -9.4804018    6.2760909    8.4187428    5.0520796 
 4871000    35.008941    9.1858094   -9.3090094    5.9653417    7.7198708    4.8096063 
 4872000    33.313589    9.3542958   -9.1844873    5.7975229    7.5519855    5.1892747 
 4873000    32.951018    10.138763   -9.3342914     6.587721    8.0099399    4.8753935 
 4874000    33.146842    10.739451   -9.3682358    7.4036667    8.1651422    4.5388779 
 4875000    34.925889    10.830947    -9.388686    6.5957124    7.0737468     6.550174 
 4876000    32.846653    10.913312   -9.2716498    6.1996032    8.7997713    5.1855875 
 4877000    32.007056    10.813754   -9.4515271    6.8537919    7.4240193    5.9874699 
 4878000    31.616442    10.711351   -9.0738693    6.7818924    7.3948617    5.6084666 
 4879000    30.801592    10.191522   -9.4653114    6.6411972    8.2326346    4.7830022 
 4880000    32.279513    9.2681709   -9.3752887    5.9483835    8.0287617    4.6663143 
 4881000    31.145011    11.715272   -9.5386114    7.1891422    8.7177437    5.3469973 
 4882000    30.950197    11.821255   -9.5957978    7.7143979     8.296652    5.4060034 
 4883000    33.002183    10.383847   -9.0853362    7.0322789    8.1184284    4.3184761 
 4884000    31.591285     10.33688   -9.3247205    6.5813055    8.4950462    4.5852492 
 4885000    37.191544    10.370247   -9.0182671    5.9109189    8.3552056    5.1223896 
 4886000    33.063751     10.97968   -9.2516268    5.6578415    8.4087902    6.1646755 
 4887000    32.652649    12.032658   -9.0114386    6.8311441    8.3892202    5.8237323 
 4888000    33.240079    10.582828   -9.3933656    6.1933471    7.8884281    5.8944183 
 4889000     33.70756    10.998952   -9.1660444    7.0354983    7.6313958    5.4981024 
 4890000    29.404826    11.347775   -9.2110732    6.4871516    8.7391399    5.3325563 
 4891000     34.84568    9.9533605   -9.4596836    7.0255702    7.3802994    5.0071746 
 4892000    35.799524    9.8273298   -9.3914705    6.3668713    8.0135987    4.8383302 
 4893000     31.80625    12.210633   -9.0489811    7.5470027    8.4540512    5.2585598 
 4894000    31.484164    11.122488   -9.1464088    6.5081423    8.5682229     5.192532 
 4895000    31.146998    10.444465    -9.386744    6.3925146    8.3753421    5.0633525 
 4896000    30.911332    9.4060934   -9.2509309    5.5979647    7.4805714    5.5784882 
 4897000    31.687186    9.7685301   -9.3283446    6.0948939      8.07513    4.9268508 
 4898000     31.41457     8.718494   -9.1634101     5.964678    7.8871997    4.0300264 
 4899000    33.813008    8.0185337   -9.4532233    7.2432743    6.4630639    3.7654188 
 4900000    31.029552     8.278434   -9.5117115    5.9144889    7.7817582    4.0938985 
 4901000    31.437081    9.5316424    -9.433558    6.6413445    7.0158592    5.3079967 
 4902000    31.589307    10.812582   -9.1533449    6.9805599    7.8314562     5.153911 
 4903000    30.297123    10.552822   -9.0834384    6.5797839    7.9540085    5.1024677 
 4904000    30.492919    8.9844863   -9.2779662    7.0099412    7.5374021    3.7151093 
 4905000    30.629239    8.3355295   -9.1609321    5.7458338    7.1365614    4.6140664 
 4906000    33.167947    11.178126   -9.4899172     6.215168    8.5515613     5.901314 
 4907000     32.50037    12.807938    -9.227373     7.093602    9.2578447    5.6838642 
 4908000    32.842039    11.427473   -9.1132225    5.9281817    8.3023368    6.3101774 
 4909000    35.909904    10.298163   -9.1473965    6.9186404    7.8605569    4.6663627 
 4910000    33.733215    10.661412   -9.4494315    6.4346237    7.8233299    5.8528896 
 4911000    31.688455     9.780666   -9.0715461    6.6148752    7.0601812    5.1771557 
 4912000    31.148454    9.9621124   -9.5723192    6.8067011    6.3953886     6.332342 
 4913000     35.76505    9.2616496   -9.3353147    6.2433489    7.2088625    5.1447529 
 4914000    32.118619    9.4533368   -8.7468258    6.6388457    6.2761611    5.2851558 
 4915000    31.823291    10.633509   -9.1225492    7.2445332    8.0114003    4.5001247 
 4916000    32.790932    11.916821   -9.2800508    6.6571935    9.1453622    5.3943157 
 4917000    35.692876    10.887558   -9.1337832    8.0173137    6.6031866    5.4008413 
 4918000    34.432001    10.815594   -9.3133835    6.5352853    8.0191922    5.5745001 
 4919000    33.691772    10.888324   -8.8779902    6.4027477    7.9958942     5.367672 
 4920000    29.764136    11.704061   -9.4401698    7.3138305    8.1169743    5.7134259 
 4921000     33.60454    9.6268766    -9.448586    6.5089151    7.3533889    5.2131586 
 4922000    34.172854    11.955169   -9.3619391     7.090108    8.9486187    5.2783818 
 4923000    31.952227    11.968533   -9.5547464    6.0285638    8.8165637    6.6781518 
 4924000    34.333725    10.637717    -9.311244    5.9039565    9.2647028    4.7803014 
 4925000    33.616682    10.129528   -9.2514126    7.1059037    7.6361277    4.6389089 
 4926000    32.553935    11.045224   -9.2452747    5.7941086    9.0708282    5.4255617 
 4927000    35.738142    11.074602   -9.4346079    7.1463931    7.6068452    5.7559718 
 4928000    35.160112    10.759722   -9.0576798    6.7475098    8.8645379    4.2053538 
 4929000    32.537052    10.827426   -9.3780007    6.4656656    7.8909411    5.8488203 
 4930000    35.154269    10.542964   -9.4088681    6.3170947    8.6010618    5.0336755 
 4931000    31.406458    10.600986   -9.4390787    6.7282134    7.9501138    5.3617379 
 4932000    31.935111    9.3699948   -9.5160257    6.0988005    8.3037092    4.4835108 
 4933000    28.697247     10.05709   -9.5401772     7.340565    7.7632741    4.4934279 
 4934000    30.175686    10.645193   -9.4740056    7.1242347    7.8143777     5.180586 
 4935000    33.225254    7.6130197   -9.5380545     5.890868    8.0321094    3.2280968 
 4936000    33.218988    9.7096816   -9.3096619    7.3124596    6.6403186    5.0665652 
 4937000    34.142793    11.204045   -9.0610212     6.750633    8.2826519    5.2317812 
 4938000    33.221947    10.004856   -9.4322336    6.4463909    7.4901058    5.5005925 
 4939000    29.265175     9.677251   -9.0609481    6.8180253    6.8478997    5.0722742 
 4940000    31.331431    8.2886718   -9.4876168    6.3907951    6.9810115     4.404482 
 4941000    31.741096    7.1277082   -9.4602317    5.5115425    6.7659537    4.3104438 
 4942000    31.200178    8.4323929   -9.2687655     5.246893    7.6596393    4.7946261 
 4943000    30.837692    10.043257     -9.28823    6.5998981    8.1120185    4.6195706 
 4944000    33.634992    7.9810557   -9.3309391    5.7849749    7.5462329    3.9807869 
 4945000     30.41735    9.0550766   -9.4472234    5.4959423    7.8554674    5.1508904 
 4946000    32.065196    8.8492271   -9.6501764    6.0905901    8.2042613     4.204552 
 4947000    32.229463    8.6943517   -9.3081985    6.0059486    7.2618408    4.7347608 
 4948000    30.216651    9.6037306   -9.3937166    6.5335359    8.7156329    3.7482784 
 4949000    30.987498    10.596088   -9.2279623       6.7615    8.7733802    4.2891697 
 4950000    33.884898    10.549916   -9.2098846    7.2270592    7.8306122    4.7021287 
 4951000    32.626608    8.4082678   -9.4924172    5.9649516    7.1870197    4.7487137 
 4952000    30.756559    11.991307   -9.4307576    7.6525142    7.9521713    5.8173787 
 4953000    32.404817    9.4499162   -9.3071171    6.8845928    6.7429848    5.1294557 
 4954000    31.813134    10.358828   -9.4815321     8.134703    7.5055521    4.2001053 
 4955000    31.140883      9.71615   -9.2714749    6.5306858    7.6892458    4.7676933 
 4956000    30.637505    10.112258   -9.3047029     6.845729    7.4325895    5.1386424 
 4957000    29.874236    9.3924311   -9.2546734    6.1476477     7.888121    4.6113357 
 4958000    33.480597    10.539468   -9.3860418    6.3646209    7.9581675    5.6027217 
 4959000    31.296634    10.639699   -9.5419707     6.606442    8.4959489    5.0792791 
 4960000    31.018999     10.98258   -9.5908915    6.2007062    9.2699643    5.1028014 
 4961000     33.47638    9.2329462   -9.4257302    6.5434421    6.9286126    5.1866217 
 4962000    30.027654    11.310225   -9.0278194    6.5472094    8.3136614    5.4771731 
 4963000    31.448106    9.4141969   -9.0434051    5.8366968    7.0008486    5.6200567 
 4964000    33.260276    8.5605476   -9.3250133    5.7313367    7.1649947    4.9892295 
 4965000    29.969455    8.9480179   -9.3695819    6.6876491    6.4259853    5.2039654 
 4966000    32.371711    7.2943356   -9.1220318    5.8576015    6.0888895    4.4698765 
 4967000    28.218141    8.4960749    -9.255257    5.9906405    7.4443018    4.3163897 
 4968000    32.226355    7.8685315   -9.3124198    6.4594891    6.9307048    3.7907574 
 4969000    30.926466    7.4204828   -9.2064035    5.6287875    6.9999238     3.998175 
 4970000    32.892844    10.479562   -9.1470545    7.8960922    6.8628439    4.8676806 
 4971000    32.588795    11.730082   -9.2326077    8.0298305    8.0084492    4.9244095 
 4972000     29.17364    11.215104   -9.1358565     7.698439    7.6674738    4.9850479 
 4973000    32.589604    8.5431665   -9.3584101    7.4751628    6.2767531    4.1496607 
 4974000    30.602603    10.958653   -9.2455658    7.9342862    6.7490609    5.5208719 
 4975000    33.323533    10.943796     -9.17388    7.1392995    7.3928948    5.5854813 
 4976000    35.171576    11.045281    -9.420034    6.0527666    8.3565604     6.055988 
 4977000    34.597602    11.258166   -9.0995149    7.7691376    8.3045565    4.2839864 
 4978000    33.437865    11.003812    -9.203252    7.8412934    7.2085253    5.1572458 
 4979000    31.907101    9.8229734   -9.3497973    6.4672359    7.9584256    4.7471091 
 4980000    32.230848    10.424015   -9.2472886    6.8088787    7.7220114    5.1404133 
 4981000    31.982956    9.5293743   -9.4375722    6.4226905     7.394744    5.1495119 
 4982000    33.604995    9.7757236   -9.1132914    6.4421989    7.9085758    4.5382402 
 4983000     33.53895     10.59921   -9.1269553    6.6890582    7.5556463    5.4814609 
 4984000    31.276651    10.077155   -9.3458731    6.7567203    7.8620779    4.8042301 
 4985000     31.57536    9.7995323   -9.1803158    6.0556899    7.8892375    5.0349208 
 4986000    31.238886    9.5054427   -9.0796723    6.5533434    7.9939827    4.0377887 
 4987000    32.646731    9.2079303   -9.2953023    6.1494639    7.6929593    4.6608094 
 4988000    31.325125    10.224063    -9.441958    6.9855242    7.3126995    5.3677974 
 4989000    32.452485    9.7021551   -9.3967038    6.1031745    8.2007395    4.7949448 
 4990000    33.172976    9.6982122    -9.227069    6.6817082    7.5772146    4.6663584 
 4991000    33.324305    9.8476154   -9.1705392    6.2524744    7.0731642    5.6925161 
 4992000    34.330336    10.353584   -9.1670269    6.4694048    7.8081321     5.243074 
 4993000    34.094515    8.9792275   -9.3818608    6.0578018    8.0599518    4.2433348 
 4994000    29.701831    12.020913   -9.1919447    6.9802346    8.7173217    5.5153014 
 4995000    32.335516     11.15732   -9.1512493    7.9236589    7.7295537    4.6553563 
 4996000     33.54984    11.117986   -9.4463666    7.4206674    8.7588855    4.3848001 
 4997000    34.284319     8.461712   -9.4415419    6.7901054    6.3249034    4.7882451 
 4998000    30.644436    10.230356   -9.2323181     7.237169     7.987002    4.2385029 
 4999000    31.106796    9.1931258   -9.3113515    6.4205369    6.9813994     5.102541 
 5000000    29.602637     8.832035   -9.0015753    5.9283461    7.1543365    4.7509277 
Loop time of -5126.75 on 4 procs for 5000000 steps with 208 atoms

Performance: -42.132 ns/day, -0.570 hours/ns, -975.277 timesteps/s
641.1% CPU use with 4 MPI tasks x no OpenMP threads

MPI task timing breakdown:
Section |  min time  |  avg time  |  max time  |%varavg| %total
---------------------------------------------------------------
Pair    | 235.69     | 300.07     | 387.35     | 318.2 | -5.85
Bond    |-5657.8     |-1343.2     | 111.51     |   0.0 | 26.20
Neigh   | 1.8363     | 1.8419     | 1.8476     |   0.4 | -0.04
Comm    |-5590.2     |-4134.1     | 97.768     |   0.0 | 80.64
Output  | 0.27954    | 0.36479    | 0.60518    |  23.0 | -0.01
Modify  | 36.004     | 40.686     | 45.775     |  56.5 | -0.79
Other   |            | 7.561      |            |       | -0.15

Nlocal:    52 ave 66 max 28 min
Histogram: 1 0 0 0 0 1 0 0 0 2
Nghost:    156 ave 180 max 142 min
Histogram: 2 0 0 0 1 0 0 0 0 1
Neighs:    3897.5 ave 4857 max 2066 min
Histogram: 1 0 0 0 0 0 1 0 0 2

Total # of neighbors = 15590
Ave neighs/atom = 74.9519
Ave special neighs/atom = 8.35577
Neighbor list builds = 10796
Dangerous builds = 0
clear

next t
next a
jump SELF loopstart
# set logfile
log		log.run.$t
log		log.run.36
