LAMMPS (10 Feb 2016)
#Set the temperature variable
variable a loop 30
variable t index 80 85 90 95 100 105 110 115 120 125 130 135 140 142 145 147 150 152 155 158 160 163 165 170 175 180 185 190 195 200

label loopstart
# set logfile
log		log.run.$t
log		log.run.80
