LAMMPS (10 Feb 2016)
# set logfile
log		log.wall0.232-124
