
# Box and units  (use LJ units and periodic boundaries)
units		real
# so:
#    mass = grams/mole		# same in gromacs
#    distance = Angstroms	# nm in gromacs
#    time = femtoseconds	# ps in gromacs
#    energy = Kcal/mole		# kcal/mol in gromacs
#    velocity = Angstroms/femtosecond	# ...
#    force = Kcal/mole-Angstrom	# ...
#    temperature = Kelvin	# same in gromacs
#    pressure = atmospheres	# same in gromacs
#    dynamic viscosity = Poise	# no idea
dimension	3
atom_style	molecular
boundary	p p p


# Pair interactions require lists of neighbours to be calculated
neighbor	5.0 nsq
neigh_modify	every 1 delay 10 check yes

# define interactions
pair_style	lj12106/cut  30.0 # same as in md_sample.mdp from the smog-model web-tool
pair_modify	shift yes
bond_style	harmonic
angle_style	harmonic
dihedral_style	charmm
special_bonds	lj 0.0 0.0 0.0 angle yes dihedral yes # 3 exclusions

# READ "start" data file
read_data ../../protein/cystatin/3GAX/7-aNewCoarsegrained/data.input
  orthogonal box = (-200 -200 -200) to (200 200 200)
  1 by 2 by 2 MPI processor grid
  reading atoms ...
  208 atoms
  scanning bonds ...
  3 = max bonds/atom
  scanning angles ...
  3 = max angles/atom
  scanning dihedrals ...
  8 = max dihedrals/atom
  reading bonds ...
  209 bonds
  reading angles ...
  306 angles
  reading dihedrals ...
  708 dihedrals
  4 = max # of 1-2 neighbors
  7 = max # of 1-3 neighbors
  15 = max # of 1-4 neighbors
  632 = # of 1-3 neighbors before angle trim
  612 = # of 1-3 neighbors after angle trim
  1165 = # of 1-4 neighbors before dihedral trim
  708 = # of 1-4 neighbors after dihedral trim
  12 = max # of special neighbors

# define coeffs
include ../../protein/cystatin/3GAX/7-aNewCoarsegrained/settings.param
pair_coeff 1 1 0.000000e+00 0.000000e+00 4.009755e+04 # CA1-CA1 type=non-native eps=0.002390 sigma=4.000000
pair_coeff 1 2 -7.705603e+02 0.000000e+00 1.242182e+06 # CA1-CA2 type=native eps=0.119500 sigma=3.843570
pair_coeff 1 3 -9.297010e+02 0.000000e+00 1.808251e+06 # CA1-SC2 type=native eps=0.119500 sigma=3.965740
pair_coeff 1 4 -1.512188e+04 0.000000e+00 5.979899e+08 # CA1-CA3 type=native eps=0.095600 sigma=6.551685
pair_coeff 1 5 -8.460246e+04 0.000000e+00 1.247834e+10 # CA1-SC3 type=native eps=0.143400 sigma=8.158944
pair_coeff 1 6 -3.163870e+05 0.000000e+00 1.570618e+11 # CA1-CA4 type=native eps=0.159333 sigma=9.988041
pair_coeff 1 7 -2.450490e+05 0.000000e+00 1.884383e+11 # CA1-SC4 type=native eps=0.079667 sigma=10.743795
pair_coeff 1 8 -1.357535e+06 0.000000e+00 2.570294e+12 # CA1-CA5 type=native eps=0.179250 sigma=12.484667
pair_coeff 1 9 -3.855445e+05 0.000000e+00 6.219438e+11 # CA1-SC5 type=native eps=0.059750 sigma=12.155825
pair_coeff 1 10 -8.404397e+06 0.000000e+00 7.388483e+13 # CA1-CA6 type=native eps=0.239000 sigma=16.125497
pair_coeff 1 11 0.000000e+00 0.000000e+00 1.085818e+04 # CA1-SC6 type=non-native eps=0.002390 sigma=3.587401
pair_coeff 1 12 -1.114102e+07 0.000000e+00 2.596701e+14 # CA1-CA7 type=native eps=0.119500 sigma=18.970896
pair_coeff 1 13 -1.698875e+07 0.000000e+00 6.038028e+14 # CA1-SC7 type=native eps=0.119500 sigma=20.352945
pair_coeff 1 14 -3.651625e+07 0.000000e+00 1.394808e+15 # CA1-CA8 type=native eps=0.239000 sigma=20.598853
pair_coeff 1 15 0.000000e+00 0.000000e+00 6.317440e+04 # CA1-SC8 type=non-native eps=0.002390 sigma=4.154435
pair_coeff 1 16 -6.293775e+06 0.000000e+00 1.243042e+14 # CA1-CA9 type=native eps=0.079667 sigma=18.454435
pair_coeff 1 17 -3.907556e+06 0.000000e+00 2.395762e+13 # CA1-SC9 type=native eps=0.159333 sigma=15.185465
pair_coeff 1 18 -1.774906e+07 0.000000e+00 6.590565e+14 # CA1-CA10 type=native eps=0.119500 sigma=20.502000
pair_coeff 1 19 -2.769455e+07 0.000000e+00 1.604578e+15 # CA1-SC10 type=native eps=0.119500 sigma=22.080017
pair_coeff 1 20 -1.501070e+07 0.000000e+00 2.356915e+14 # CA1-CA11 type=native eps=0.239000 sigma=17.762149
pair_coeff 1 21 -6.366577e+06 0.000000e+00 7.066475e+13 # CA1-CA12 type=native eps=0.143400 sigma=16.764392
pair_coeff 1 22 -3.008667e+06 0.000000e+00 2.367175e+13 # CA1-SC12 type=native eps=0.095600 sigma=15.830004
pair_coeff 1 23 -3.575635e+07 0.000000e+00 1.337360e+15 # CA1-CA13 type=native eps=0.239000 sigma=20.526782
pair_coeff 1 24 0.000000e+00 0.000000e+00 1.293687e+05 # CA1-SC13 type=non-native eps=0.002390 sigma=4.410142
pair_coeff 1 25 -1.366155e+07 0.000000e+00 5.856835e+14 # CA1-CA14 type=native eps=0.079667 sigma=20.999012
pair_coeff 1 26 -5.929064e+07 0.000000e+00 5.515764e+15 # CA1-SC14 type=native eps=0.159333 sigma=23.893233
pair_coeff 1 27 -1.221687e+07 0.000000e+00 2.341820e+14 # CA1-CA15 type=native eps=0.159333 sigma=18.362730
pair_coeff 1 28 -3.671344e+06 0.000000e+00 4.229739e+13 # CA1-SC15 type=native eps=0.079667 sigma=16.868886
pair_coeff 1 29 -1.189860e+07 0.000000e+00 3.702319e+14 # CA1-CA16 type=native eps=0.095600 sigma=19.906794
pair_coeff 1 30 -2.268682e+07 0.000000e+00 8.973010e+14 # CA1-SC16 type=native eps=0.143400 sigma=20.718855
pair_coeff 1 31 -3.958747e+07 0.000000e+00 3.278593e+15 # CA1-CA17 type=native eps=0.119500 sigma=23.434731
pair_coeff 1 32 -6.627091e+07 0.000000e+00 9.187935e+15 # CA1-SC17 type=native eps=0.119500 sigma=25.536076
pair_coeff 1 33 -9.260876e+06 0.000000e+00 6.279778e+14 # CA1-CA18 type=native eps=0.034143 sigma=22.666634
pair_coeff 1 34 -4.179269e+07 0.000000e+00 2.131521e+15 # CA1-SC18 type=native eps=0.204857 sigma=21.615728
pair_coeff 1 35 -3.300542e+07 0.000000e+00 1.519328e+15 # CA1-CA19 type=native eps=0.179250 sigma=21.249532
pair_coeff 1 36 -7.586071e+06 0.000000e+00 2.407886e+14 # CA1-SC19 type=native eps=0.059750 sigma=19.972917
pair_coeff 1 37 -3.792383e+07 0.000000e+00 3.761028e+15 # CA1-CA20 type=native eps=0.095600 sigma=24.149273
pair_coeff 1 38 -6.262869e+07 0.000000e+00 6.838133e+15 # CA1-SC20 type=native eps=0.143400 sigma=24.539499
pair_coeff 1 39 -1.645308e+08 0.000000e+00 2.831631e+16 # CA1-CA21 type=native eps=0.239000 sigma=26.473004
pair_coeff 1 40 -4.325208e+07 0.000000e+00 5.870530e+15 # CA1-CA22 type=native eps=0.079667 sigma=25.445836
pair_coeff 1 41 -7.660248e+07 0.000000e+00 9.207019e+15 # CA1-SC22 type=native eps=0.159333 sigma=24.935478
pair_coeff 1 42 -4.752070e+07 0.000000e+00 7.086454e+15 # CA1-CA23 type=native eps=0.079667 sigma=25.848144
pair_coeff 1 43 -1.132306e+08 0.000000e+00 2.011689e+16 # CA1-SC23 type=native eps=0.159333 sigma=26.613654
pair_coeff 1 44 -1.226562e+08 0.000000e+00 3.934241e+16 # CA1-CA24 type=native eps=0.095600 sigma=29.367496
pair_coeff 1 45 -1.917971e+08 0.000000e+00 6.413202e+16 # CA1-SC24 type=native eps=0.143400 sigma=29.571758
pair_coeff 1 46 -3.726405e+08 0.000000e+00 1.452520e+17 # CA1-CA25 type=native eps=0.239000 sigma=30.337307
pair_coeff 1 47 0.000000e+00 0.000000e+00 6.317440e+04 # CA1-SC25 type=non-native eps=0.002390 sigma=4.154435
pair_coeff 1 48 0.000000e+00 0.000000e+00 4.009755e+04 # CA1-CA26 type=non-native eps=0.002390 sigma=4.000000
pair_coeff 1 49 0.000000e+00 0.000000e+00 3.442571e+03 # CA1-SC26 type=non-native eps=0.002390 sigma=3.259921
pair_coeff 1 50 -2.243899e+08 0.000000e+00 1.053365e+17 # CA1-CA27 type=native eps=0.119500 sigma=31.292067
pair_coeff 1 51 -2.322741e+08 0.000000e+00 1.128687e+17 # CA1-SC27 type=native eps=0.119500 sigma=31.472686
pair_coeff 1 52 0.000000e+00 0.000000e+00 4.009755e+04 # CA1-CA28 type=non-native eps=0.002390 sigma=4.000000
pair_coeff 1 53 0.000000e+00 0.000000e+00 4.009755e+04 # CA1-SC28 type=non-native eps=0.002390 sigma=4.000000
pair_coeff 1 54 -3.784337e+08 0.000000e+00 3.745086e+17 # CA1-CA29 type=native eps=0.095600 sigma=35.433740
pair_coeff 1 55 -5.154005e+08 0.000000e+00 4.631061e+17 # CA1-SC29 type=native eps=0.143400 sigma=34.868046
pair_coeff 1 56 -5.984279e+08 0.000000e+00 9.364955e+17 # CA1-CA30 type=native eps=0.095600 sigma=38.246114
pair_coeff 1 57 -1.473243e+09 0.000000e+00 3.783898e+18 # CA1-SC30 type=native eps=0.143400 sigma=41.538345
pair_coeff 1 58 -5.624528e+08 0.000000e+00 6.618266e+17 # CA1-CA31 type=native eps=0.119500 sigma=36.471030
pair_coeff 1 59 -9.550739e+08 0.000000e+00 1.908297e+18 # CA1-SC31 type=native eps=0.119500 sigma=39.835767
pair_coeff 1 60 -2.872588e+08 0.000000e+00 2.014029e+17 # CA1-CA32 type=native eps=0.102429 sigma=33.455720
pair_coeff 1 61 -2.934573e+08 0.000000e+00 1.576413e+17 # CA1-SC32 type=native eps=0.136571 sigma=32.003134
pair_coeff 1 62 -2.282432e+08 0.000000e+00 9.082108e+16 # CA1-CA33 type=native eps=0.143400 sigma=30.441763
pair_coeff 1 63 -1.446193e+08 0.000000e+00 5.469338e+16 # CA1-SC33 type=native eps=0.095600 sigma=30.184900
pair_coeff 1 64 -8.143585e+07 0.000000e+00 2.081108e+16 # CA1-CA34 type=native eps=0.079667 sigma=28.276013
pair_coeff 1 65 -2.801840e+08 0.000000e+00 1.231743e+17 # CA1-SC34 type=native eps=0.159333 sigma=30.951696
pair_coeff 1 66 -9.613957e+07 0.000000e+00 1.289096e+16 # CA1-CA35 type=native eps=0.179250 sigma=25.394256
pair_coeff 1 67 -2.327960e+07 0.000000e+00 2.267531e+15 # CA1-SC35 type=native eps=0.059750 sigma=24.076939
pair_coeff 1 68 -6.453197e+07 0.000000e+00 1.306812e+16 # CA1-CA36 type=native eps=0.079667 sigma=27.200573
pair_coeff 1 69 -1.717751e+08 0.000000e+00 4.629710e+16 # CA1-SC36 type=native eps=0.159333 sigma=28.527952
pair_coeff 1 70 -4.578683e+07 0.000000e+00 4.385844e+15 # CA1-CA37 type=native eps=0.119500 sigma=24.009905
pair_coeff 1 71 -4.298001e+07 0.000000e+00 3.864604e+15 # CA1-SC37 type=native eps=0.119500 sigma=23.758085
pair_coeff 1 72 -8.704802e+06 0.000000e+00 3.170443e+14 # CA1-CA38 type=native eps=0.059750 sigma=20.436123
pair_coeff 1 73 -2.120090e+07 0.000000e+00 6.268870e+14 # CA1-SC38 type=native eps=0.179250 sigma=19.738350
pair_coeff 1 74 -5.527970e+06 0.000000e+00 1.278596e+14 # CA1-CA39 type=native eps=0.059750 sigma=18.946673
pair_coeff 1 75 -2.003311e+07 0.000000e+00 5.597287e+14 # CA1-SC39 type=native eps=0.179250 sigma=19.552841
pair_coeff 1 76 -1.999236e+06 0.000000e+00 1.254272e+13 # CA1-CA40 type=native eps=0.079667 sigma=15.243789
pair_coeff 1 77 -9.248936e+05 0.000000e+00 1.342199e+12 # CA1-SC40 type=native eps=0.159333 sigma=11.943342
pair_coeff 1 78 -1.336872e+06 0.000000e+00 3.738970e+12 # CA1-CA41 type=native eps=0.119500 sigma=13.323408
pair_coeff 1 79 -2.000252e+06 0.000000e+00 8.370310e+12 # CA1-SC41 type=native eps=0.119500 sigma=14.248893
pair_coeff 1 80 -1.593516e+05 0.000000e+00 6.640414e+10 # CA1-CA42 type=native eps=0.095600 sigma=9.700887
pair_coeff 1 81 -1.208795e+05 0.000000e+00 2.547394e+10 # CA1-SC42 type=native eps=0.143400 sigma=8.658890
pair_coeff 1 82 -3.365084e+04 0.000000e+00 5.922484e+09 # CA1-CA43 type=native eps=0.047800 sigma=8.402780
pair_coeff 1 83 -7.165821e+05 0.000000e+00 6.714041e+11 # CA1-SC43 type=native eps=0.191200 sigma=11.103452
pair_coeff 1 84 -1.296119e+04 0.000000e+00 4.393107e+08 # CA1-CA44 type=native eps=0.095600 sigma=6.385469
pair_coeff 1 85 -1.691210e+03 0.000000e+00 4.986385e+06 # CA1-SC44 type=native eps=0.143400 sigma=4.250464
pair_coeff 1 86 -5.114270e+04 0.000000e+00 1.094383e+10 # CA1-CA45 type=native eps=0.059750 sigma=8.680991
pair_coeff 1 87 -3.020365e+05 0.000000e+00 1.272330e+11 # CA1-SC45 type=native eps=0.179250 sigma=9.718406
pair_coeff 1 88 -2.303983e+05 0.000000e+00 1.110531e+11 # CA1-CA46 type=native eps=0.119500 sigma=9.939096
pair_coeff 1 89 -1.819371e+05 0.000000e+00 6.924922e+10 # CA1-SC46 type=native eps=0.119500 sigma=9.555511
pair_coeff 1 90 -1.596577e+06 0.000000e+00 5.332755e+12 # CA1-CA47 type=native eps=0.119500 sigma=13.723513
pair_coeff 1 91 -2.268119e+06 0.000000e+00 1.076226e+13 # CA1-SC47 type=native eps=0.119500 sigma=14.550502
pair_coeff 1 92 -3.539787e+06 0.000000e+00 1.310679e+13 # CA1-CA48 type=native eps=0.239000 sigma=13.961268
pair_coeff 1 93 -6.410722e+05 0.000000e+00 8.597774e+11 # CA1-CA49 type=native eps=0.119500 sigma=11.787404
pair_coeff 1 94 -8.108391e+05 0.000000e+00 1.375440e+12 # CA1-SC49 type=native eps=0.119500 sigma=12.258090
pair_coeff 1 95 -2.060193e+05 0.000000e+00 1.331923e+11 # CA1-CA50 type=native eps=0.079667 sigma=10.437589
pair_coeff 1 96 -3.279418e+05 0.000000e+00 1.687435e+11 # CA1-SC50 type=native eps=0.159333 sigma=10.047932
pair_coeff 1 97 -3.718764e+05 0.000000e+00 4.339708e+11 # CA1-CA51 type=native eps=0.079667 sigma=11.517246
pair_coeff 1 98 -2.069244e+06 0.000000e+00 6.718258e+12 # CA1-SC51 type=native eps=0.159333 sigma=13.658799
pair_coeff 1 99 -3.271579e+05 0.000000e+00 3.358754e+11 # CA1-CA52 type=native eps=0.079667 sigma=11.273925
pair_coeff 1 100 -1.220047e+05 0.000000e+00 2.335537e+10 # CA1-SC52 type=native eps=0.159333 sigma=8.521316
pair_coeff 1 101 -1.820267e+06 0.000000e+00 8.664680e+12 # CA1-CA53 type=native eps=0.095600 sigma=14.558207
pair_coeff 1 102 -3.874571e+06 0.000000e+00 2.617207e+13 # CA1-SC53 type=native eps=0.143400 sigma=15.432658
pair_coeff 1 103 -2.518649e+06 0.000000e+00 2.654224e+13 # CA1-CA54 type=native eps=0.059750 sigma=16.620087
pair_coeff 1 104 -4.083930e+06 0.000000e+00 2.326149e+13 # CA1-SC54 type=native eps=0.179250 sigma=15.000240
pair_coeff 1 105 -1.599619e+07 0.000000e+00 5.353099e+14 # CA1-CA55 type=native eps=0.119500 sigma=20.149756
pair_coeff 1 106 -1.631150e+07 0.000000e+00 5.566213e+14 # CA1-SC55 type=native eps=0.119500 sigma=20.215415
pair_coeff 1 107 -1.661824e+07 0.000000e+00 1.444382e+15 # CA1-CA56 type=native eps=0.047800 sigma=23.624059
pair_coeff 1 108 -8.068396e+07 0.000000e+00 8.511901e+15 # CA1-SC56 type=native eps=0.191200 sigma=24.399348
pair_coeff 1 109 -6.075288e+07 0.000000e+00 9.651969e+15 # CA1-CA57 type=native eps=0.095600 sigma=26.122406
pair_coeff 1 110 -7.091966e+07 0.000000e+00 8.768477e+15 # CA1-SC57 type=native eps=0.143400 sigma=25.053280
pair_coeff 1 111 -3.380712e+08 0.000000e+00 1.195524e+17 # CA1-CA58 type=native eps=0.239000 sigma=29.849017
pair_coeff 1 112 -2.007225e+08 0.000000e+00 1.264316e+17 # CA1-CA59 type=native eps=0.079667 sigma=32.863584
pair_coeff 1 113 -6.114262e+08 0.000000e+00 5.865722e+17 # CA1-SC59 type=native eps=0.159333 sigma=35.250713
pair_coeff 1 114 -3.594491e+08 0.000000e+00 3.378756e+17 # CA1-CA60 type=native eps=0.095600 sigma=35.131086
pair_coeff 1 115 -4.753048e+08 0.000000e+00 3.938541e+17 # CA1-SC60 type=native eps=0.143400 sigma=34.400560
pair_coeff 1 116 -9.885996e+08 0.000000e+00 1.703851e+18 # CA1-CA61 type=native eps=0.143400 sigma=38.866331
pair_coeff 1 117 -7.524414e+08 0.000000e+00 1.480565e+18 # CA1-SC61 type=native eps=0.095600 sigma=39.734169
pair_coeff 1 118 -8.145312e+08 0.000000e+00 1.387994e+18 # CA1-CA62 type=native eps=0.119500 sigma=38.792845
pair_coeff 1 119 -6.298130e+08 0.000000e+00 8.298419e+17 # CA1-SC62 type=native eps=0.119500 sigma=37.165127
pair_coeff 1 120 0.000000e+00 0.000000e+00 4.009755e+04 # CA1-CA63 type=non-native eps=0.002390 sigma=4.000000
pair_coeff 1 121 0.000000e+00 0.000000e+00 2.286802e+04 # CA1-SC63 type=non-native eps=0.002390 sigma=3.817121
pair_coeff 1 122 0.000000e+00 0.000000e+00 4.009755e+04 # CA1-CA64 type=non-native eps=0.002390 sigma=4.000000
pair_coeff 1 123 0.000000e+00 0.000000e+00 6.317440e+04 # CA1-SC64 type=non-native eps=0.002390 sigma=4.154435
pair_coeff 1 124 0.000000e+00 0.000000e+00 4.009755e+04 # CA1-CA65 type=non-native eps=0.002390 sigma=4.000000
pair_coeff 1 125 0.000000e+00 0.000000e+00 2.286802e+04 # CA1-SC65 type=non-native eps=0.002390 sigma=3.817121
pair_coeff 1 126 0.000000e+00 0.000000e+00 4.009755e+04 # CA1-CA66 type=non-native eps=0.002390 sigma=4.000000
pair_coeff 1 127 0.000000e+00 0.000000e+00 9.272377e+04 # CA1-SC66 type=non-native eps=0.002390 sigma=4.289428
pair_coeff 1 128 0.000000e+00 0.000000e+00 4.009755e+04 # CA1-CA67 type=non-native eps=0.002390 sigma=4.000000
pair_coeff 1 129 0.000000e+00 0.000000e+00 4.009755e+04 # CA1-SC67 type=non-native eps=0.002390 sigma=4.000000
pair_coeff 1 130 0.000000e+00 0.000000e+00 4.009755e+04 # CA1-CA68 type=non-native eps=0.002390 sigma=4.000000
pair_coeff 1 131 0.000000e+00 0.000000e+00 4.009755e+04 # CA1-SC68 type=non-native eps=0.002390 sigma=4.000000
pair_coeff 1 132 0.000000e+00 0.000000e+00 4.009755e+04 # CA1-CA69 type=non-native eps=0.002390 sigma=4.000000
pair_coeff 1 133 0.000000e+00 0.000000e+00 4.009755e+04 # CA1-SC69 type=non-native eps=0.002390 sigma=4.000000
pair_coeff 1 134 0.000000e+00 0.000000e+00 4.009755e+04 # CA1-CA70 type=non-native eps=0.002390 sigma=4.000000
pair_coeff 1 135 0.000000e+00 0.000000e+00 1.085818e+04 # CA1-SC70 type=non-native eps=0.002390 sigma=3.587401
pair_coeff 1 136 0.000000e+00 0.000000e+00 4.009755e+04 # CA1-CA71 type=non-native eps=0.002390 sigma=4.000000
pair_coeff 1 137 0.000000e+00 0.000000e+00 2.286802e+04 # CA1-SC71 type=non-native eps=0.002390 sigma=3.817121
pair_coeff 1 138 0.000000e+00 0.000000e+00 4.009755e+04 # CA1-CA72 type=non-native eps=0.002390 sigma=4.000000
pair_coeff 1 139 -4.710505e+08 0.000000e+00 2.321010e+17 # CA1-SC72 type=native eps=0.239000 sigma=31.545682
pair_coeff 1 140 -2.060873e+08 0.000000e+00 2.665605e+17 # CA1-CA73 type=native eps=0.039833 sigma=37.050644
pair_coeff 1 141 -1.253748e+09 0.000000e+00 1.973075e+18 # CA1-SC73 type=native eps=0.199167 sigma=38.281938
pair_coeff 1 142 -1.562129e+09 0.000000e+00 2.552560e+18 # CA1-CA74 type=native eps=0.239000 sigma=38.522533
pair_coeff 1 143 0.000000e+00 0.000000e+00 4.009755e+04 # CA1-SC74 type=non-native eps=0.002390 sigma=4.000000
pair_coeff 1 144 -1.833840e+09 0.000000e+00 3.517750e+18 # CA1-CA75 type=native eps=0.239000 sigma=39.566010
pair_coeff 1 145 0.000000e+00 0.000000e+00 6.317440e+04 # CA1-SC75 type=non-native eps=0.002390 sigma=4.154435
pair_coeff 1 146 -1.163610e+09 0.000000e+00 1.416306e+18 # CA1-CA76 type=native eps=0.239000 sigma=36.677237
pair_coeff 1 147 0.000000e+00 0.000000e+00 2.286802e+04 # CA1-SC76 type=non-native eps=0.002390 sigma=3.817121
pair_coeff 1 148 0.000000e+00 0.000000e+00 4.009755e+04 # CA1-CA77 type=non-native eps=0.002390 sigma=4.000000
pair_coeff 1 149 0.000000e+00 0.000000e+00 9.272377e+04 # CA1-SC77 type=non-native eps=0.002390 sigma=4.289428
pair_coeff 1 150 0.000000e+00 0.000000e+00 4.009755e+04 # CA1-CA78 type=non-native eps=0.002390 sigma=4.000000
pair_coeff 1 151 0.000000e+00 0.000000e+00 4.009755e+04 # CA1-SC78 type=non-native eps=0.002390 sigma=4.000000
pair_coeff 1 152 0.000000e+00 0.000000e+00 4.009755e+04 # CA1-CA79 type=non-native eps=0.002390 sigma=4.000000
pair_coeff 1 153 0.000000e+00 0.000000e+00 6.317440e+04 # CA1-SC79 type=non-native eps=0.002390 sigma=4.154435
pair_coeff 1 154 -2.970911e+08 0.000000e+00 1.846508e+17 # CA1-CA80 type=native eps=0.119500 sigma=32.790543
pair_coeff 1 155 -4.249209e+08 0.000000e+00 3.777359e+17 # CA1-SC80 type=native eps=0.119500 sigma=34.805806
pair_coeff 1 156 -7.770944e+07 0.000000e+00 2.526677e+16 # CA1-CA81 type=native eps=0.059750 sigma=29.434115
pair_coeff 1 157 -1.885618e+08 0.000000e+00 4.958934e+16 # CA1-SC81 type=native eps=0.179250 sigma=28.411496
pair_coeff 1 158 -8.283084e+07 0.000000e+00 1.435345e+16 # CA1-CA82 type=native eps=0.119500 sigma=26.503244
pair_coeff 1 159 -8.391926e+07 0.000000e+00 1.473314e+16 # CA1-SC82 type=native eps=0.119500 sigma=26.560971
pair_coeff 1 160 -3.502712e+07 0.000000e+00 2.566735e+15 # CA1-CA83 type=native eps=0.119500 sigma=22.961544
pair_coeff 1 161 -1.634791e+07 0.000000e+00 5.591092e+14 # CA1-SC83 type=native eps=0.119500 sigma=20.222929
pair_coeff 1 162 -1.209165e+07 0.000000e+00 4.588116e+14 # CA1-CA84 type=native eps=0.079667 sigma=20.576104
pair_coeff 1 163 -4.060377e+07 0.000000e+00 2.586819e+15 # CA1-SC84 type=native eps=0.159333 sigma=22.432187
pair_coeff 1 164 -7.386779e+06 0.000000e+00 8.561376e+13 # CA1-CA85 type=native eps=0.159333 sigma=16.885726
pair_coeff 1 165 -2.959598e+06 0.000000e+00 2.748709e+13 # CA1-SC85 type=native eps=0.079667 sigma=16.273751
pair_coeff 1 166 -2.332320e+06 0.000000e+00 2.276032e+13 # CA1-CA86 type=native eps=0.059750 sigma=16.408543
pair_coeff 1 167 -1.969146e+07 0.000000e+00 5.408001e+14 # CA1-SC86 type=native eps=0.179250 sigma=19.496866
pair_coeff 1 168 -9.467417e+05 0.000000e+00 3.281506e+12 # CA1-CA87 type=native eps=0.068286 sigma=13.808461
pair_coeff 1 169 -1.146809e+06 0.000000e+00 1.925982e+12 # CA1-SC87 type=native eps=0.170714 sigma=12.237664
pair_coeff 1 170 -1.428089e+06 0.000000e+00 8.533214e+12 # CA1-CA88 type=native eps=0.059750 sigma=15.120445
pair_coeff 1 171 -6.583396e+06 0.000000e+00 6.044784e+13 # CA1-SC88 type=native eps=0.179250 sigma=16.242772
pair_coeff 1 172 -1.818698e+06 0.000000e+00 8.649749e+12 # CA1-CA89 type=native eps=0.095600 sigma=14.556115
pair_coeff 1 173 -3.276517e+06 0.000000e+00 1.871612e+13 # CA1-SC89 type=native eps=0.143400 sigma=15.007403
pair_coeff 1 174 -4.403050e+06 0.000000e+00 4.055827e+13 # CA1-CA90 type=native eps=0.119500 sigma=16.251469
pair_coeff 1 175 -4.384141e+06 0.000000e+00 4.021065e+13 # CA1-SC90 type=native eps=0.119500 sigma=16.239816
pair_coeff 1 176 -8.936376e+06 0.000000e+00 1.392239e+14 # CA1-CA91 type=native eps=0.143400 sigma=17.739051
pair_coeff 1 177 -6.550754e+06 0.000000e+00 1.122186e+14 # CA1-SC91 type=native eps=0.095600 sigma=18.021900
pair_coeff 1 178 0.000000e+00 0.000000e+00 4.009755e+04 # CA1-CA92 type=non-native eps=0.002390 sigma=4.000000
pair_coeff 1 179 0.000000e+00 0.000000e+00 2.286802e+04 # CA1-SC92 type=non-native eps=0.002390 sigma=3.817121
pair_coeff 1 180 0.000000e+00 0.000000e+00 4.009755e+04 # CA1-CA93 type=non-native eps=0.002390 sigma=4.000000
pair_coeff 1 181 0.000000e+00 0.000000e+00 2.880942e+05 # CA1-SC93 type=non-native eps=0.002390 sigma=4.714418
pair_coeff 1 182 0.000000e+00 0.000000e+00 4.009755e+04 # CA1-CA94 type=non-native eps=0.002390 sigma=4.000000
pair_coeff 1 183 0.000000e+00 0.000000e+00 6.317440e+04 # CA1-SC94 type=non-native eps=0.002390 sigma=4.154435
pair_coeff 1 184 0.000000e+00 0.000000e+00 4.009755e+04 # CA1-CA95 type=non-native eps=0.002390 sigma=4.000000
pair_coeff 1 185 0.000000e+00 0.000000e+00 4.009755e+04 # CA1-CA96 type=non-native eps=0.002390 sigma=4.000000
pair_coeff 1 186 0.000000e+00 0.000000e+00 2.286802e+04 # CA1-SC96 type=non-native eps=0.002390 sigma=3.817121
pair_coeff 1 187 0.000000e+00 0.000000e+00 4.009755e+04 # CA1-CA97 type=non-native eps=0.002390 sigma=4.000000
pair_coeff 1 188 0.000000e+00 0.000000e+00 4.009755e+04 # CA1-SC97 type=non-native eps=0.002390 sigma=4.000000
pair_coeff 1 189 0.000000e+00 0.000000e+00 4.009755e+04 # CA1-CA98 type=non-native eps=0.002390 sigma=4.000000
pair_coeff 1 190 0.000000e+00 0.000000e+00 2.286802e+04 # CA1-SC98 type=non-native eps=0.002390 sigma=3.817121
pair_coeff 1 191 0.000000e+00 0.000000e+00 4.009755e+04 # CA1-CA99 type=non-native eps=0.002390 sigma=4.000000
pair_coeff 1 192 0.000000e+00 0.000000e+00 4.009755e+04 # CA1-SC99 type=non-native eps=0.002390 sigma=4.000000
pair_coeff 1 193 0.000000e+00 0.000000e+00 4.009755e+04 # CA1-CA100 type=non-native eps=0.002390 sigma=4.000000
pair_coeff 1 194 0.000000e+00 0.000000e+00 1.085818e+04 # CA1-SC100 type=non-native eps=0.002390 sigma=3.587401
pair_coeff 1 195 0.000000e+00 0.000000e+00 4.009755e+04 # CA1-CA101 type=non-native eps=0.002390 sigma=4.000000
pair_coeff 1 196 0.000000e+00 0.000000e+00 6.317440e+04 # CA1-SC101 type=non-native eps=0.002390 sigma=4.154435
pair_coeff 1 197 0.000000e+00 0.000000e+00 4.009755e+04 # CA1-CA102 type=non-native eps=0.002390 sigma=4.000000
pair_coeff 1 198 0.000000e+00 0.000000e+00 1.085818e+04 # CA1-SC102 type=non-native eps=0.002390 sigma=3.587401
pair_coeff 1 199 0.000000e+00 0.000000e+00 4.009755e+04 # CA1-CA103 type=non-native eps=0.002390 sigma=4.000000
pair_coeff 1 200 0.000000e+00 0.000000e+00 2.286802e+04 # CA1-SC103 type=non-native eps=0.002390 sigma=3.817121
pair_coeff 1 201 0.000000e+00 0.000000e+00 4.009755e+04 # CA1-CA104 type=non-native eps=0.002390 sigma=4.000000
pair_coeff 1 202 0.000000e+00 0.000000e+00 1.085818e+04 # CA1-SC104 type=non-native eps=0.002390 sigma=3.587401
pair_coeff 1 203 0.000000e+00 0.000000e+00 4.009755e+04 # CA1-CA105 type=non-native eps=0.002390 sigma=4.000000
pair_coeff 1 204 0.000000e+00 0.000000e+00 6.317440e+04 # CA1-SC105 type=non-native eps=0.002390 sigma=4.154435
pair_coeff 1 205 0.000000e+00 0.000000e+00 4.009755e+04 # CA1-CA106 type=non-native eps=0.002390 sigma=4.000000
pair_coeff 1 206 0.000000e+00 0.000000e+00 4.009755e+04 # CA1-SC106 type=non-native eps=0.002390 sigma=4.000000
pair_coeff 1 207 0.000000e+00 0.000000e+00 4.009755e+04 # CA1-CA107 type=non-native eps=0.002390 sigma=4.000000
pair_coeff 1 208 0.000000e+00 0.000000e+00 1.085818e+04 # CA1-SC107 type=non-native eps=0.002390 sigma=3.587401
pair_coeff 2 2 0.000000e+00 0.000000e+00 4.009755e+04 # CA2-CA2 type=non-native eps=0.002390 sigma=4.000000
pair_coeff 2 3 0.000000e+00 0.000000e+00 2.286802e+04 # CA2-SC2 type=non-native eps=0.002390 sigma=3.817121
pair_coeff 2 4 0.000000e+00 0.000000e+00 4.009755e+04 # CA2-CA3 type=non-native eps=0.002390 sigma=4.000000
pair_coeff 2 5 0.000000e+00 0.000000e+00 4.009755e+04 # CA2-SC3 type=non-native eps=0.002390 sigma=4.000000
pair_coeff 2 6 0.000000e+00 0.000000e+00 4.009755e+04 # CA2-CA4 type=non-native eps=0.002390 sigma=4.000000
pair_coeff 2 7 0.000000e+00 0.000000e+00 4.009755e+04 # CA2-SC4 type=non-native eps=0.002390 sigma=4.000000
pair_coeff 2 8 0.000000e+00 0.000000e+00 4.009755e+04 # CA2-CA5 type=non-native eps=0.002390 sigma=4.000000
pair_coeff 2 9 0.000000e+00 0.000000e+00 3.442571e+03 # CA2-SC5 type=non-native eps=0.002390 sigma=3.259921
pair_coeff 2 10 0.000000e+00 0.000000e+00 4.009755e+04 # CA2-CA6 type=non-native eps=0.002390 sigma=4.000000
pair_coeff 2 11 0.000000e+00 0.000000e+00 1.085818e+04 # CA2-SC6 type=non-native eps=0.002390 sigma=3.587401
pair_coeff 2 12 0.000000e+00 0.000000e+00 4.009755e+04 # CA2-CA7 type=non-native eps=0.002390 sigma=4.000000
pair_coeff 2 13 0.000000e+00 0.000000e+00 2.286802e+04 # CA2-SC7 type=non-native eps=0.002390 sigma=3.817121
pair_coeff 2 14 0.000000e+00 0.000000e+00 4.009755e+04 # CA2-CA8 type=non-native eps=0.002390 sigma=4.000000
pair_coeff 2 15 0.000000e+00 0.000000e+00 6.317440e+04 # CA2-SC8 type=non-native eps=0.002390 sigma=4.154435
pair_coeff 2 16 0.000000e+00 0.000000e+00 4.009755e+04 # CA2-CA9 type=non-native eps=0.002390 sigma=4.000000
pair_coeff 2 17 0.000000e+00 0.000000e+00 6.317440e+04 # CA2-SC9 type=non-native eps=0.002390 sigma=4.154435
pair_coeff 2 18 0.000000e+00 0.000000e+00 4.009755e+04 # CA2-CA10 type=non-native eps=0.002390 sigma=4.000000
pair_coeff 2 19 0.000000e+00 0.000000e+00 6.317440e+04 # CA2-SC10 type=non-native eps=0.002390 sigma=4.154435
pair_coeff 2 20 0.000000e+00 0.000000e+00 4.009755e+04 # CA2-CA11 type=non-native eps=0.002390 sigma=4.000000
pair_coeff 2 21 0.000000e+00 0.000000e+00 4.009755e+04 # CA2-CA12 type=non-native eps=0.002390 sigma=4.000000
pair_coeff 2 22 0.000000e+00 0.000000e+00 2.286802e+04 # CA2-SC12 type=non-native eps=0.002390 sigma=3.817121
pair_coeff 2 23 0.000000e+00 0.000000e+00 4.009755e+04 # CA2-CA13 type=non-native eps=0.002390 sigma=4.000000
pair_coeff 2 24 0.000000e+00 0.000000e+00 1.293687e+05 # CA2-SC13 type=non-native eps=0.002390 sigma=4.410142
pair_coeff 2 25 0.000000e+00 0.000000e+00 4.009755e+04 # CA2-CA14 type=non-native eps=0.002390 sigma=4.000000
pair_coeff 2 26 0.000000e+00 0.000000e+00 1.293687e+05 # CA2-SC14 type=non-native eps=0.002390 sigma=4.410142
pair_coeff 2 27 0.000000e+00 0.000000e+00 4.009755e+04 # CA2-CA15 type=non-native eps=0.002390 sigma=4.000000
pair_coeff 2 28 0.000000e+00 0.000000e+00 3.442571e+03 # CA2-SC15 type=non-native eps=0.002390 sigma=3.259921
pair_coeff 2 29 0.000000e+00 0.000000e+00 4.009755e+04 # CA2-CA16 type=non-native eps=0.002390 sigma=4.000000
pair_coeff 2 30 0.000000e+00 0.000000e+00 4.009755e+04 # CA2-SC16 type=non-native eps=0.002390 sigma=4.000000
pair_coeff 2 31 0.000000e+00 0.000000e+00 4.009755e+04 # CA2-CA17 type=non-native eps=0.002390 sigma=4.000000
pair_coeff 2 32 0.000000e+00 0.000000e+00 4.009755e+04 # CA2-SC17 type=non-native eps=0.002390 sigma=4.000000
pair_coeff 2 33 0.000000e+00 0.000000e+00 4.009755e+04 # CA2-CA18 type=non-native eps=0.002390 sigma=4.000000
pair_coeff 2 34 0.000000e+00 0.000000e+00 1.293687e+05 # CA2-SC18 type=non-native eps=0.002390 sigma=4.410142
pair_coeff 2 35 0.000000e+00 0.000000e+00 4.009755e+04 # CA2-CA19 type=non-native eps=0.002390 sigma=4.000000
pair_coeff 2 36 0.000000e+00 0.000000e+00 3.442571e+03 # CA2-SC19 type=non-native eps=0.002390 sigma=3.259921
pair_coeff 2 37 0.000000e+00 0.000000e+00 4.009755e+04 # CA2-CA20 type=non-native eps=0.002390 sigma=4.000000
pair_coeff 2 38 0.000000e+00 0.000000e+00 2.286802e+04 # CA2-SC20 type=non-native eps=0.002390 sigma=3.817121
pair_coeff 2 39 0.000000e+00 0.000000e+00 4.009755e+04 # CA2-CA21 type=non-native eps=0.002390 sigma=4.000000
pair_coeff 2 40 0.000000e+00 0.000000e+00 4.009755e+04 # CA2-CA22 type=non-native eps=0.002390 sigma=4.000000
pair_coeff 2 41 0.000000e+00 0.000000e+00 6.317440e+04 # CA2-SC22 type=non-native eps=0.002390 sigma=4.154435
pair_coeff 2 42 0.000000e+00 0.000000e+00 4.009755e+04 # CA2-CA23 type=non-native eps=0.002390 sigma=4.000000
pair_coeff 2 43 0.000000e+00 0.000000e+00 1.737309e+05 # CA2-SC23 type=non-native eps=0.002390 sigma=4.519842
pair_coeff 2 44 0.000000e+00 0.000000e+00 4.009755e+04 # CA2-CA24 type=non-native eps=0.002390 sigma=4.000000
pair_coeff 2 45 0.000000e+00 0.000000e+00 4.009755e+04 # CA2-SC24 type=non-native eps=0.002390 sigma=4.000000
pair_coeff 2 46 0.000000e+00 0.000000e+00 4.009755e+04 # CA2-CA25 type=non-native eps=0.002390 sigma=4.000000
pair_coeff 2 47 0.000000e+00 0.000000e+00 6.317440e+04 # CA2-SC25 type=non-native eps=0.002390 sigma=4.154435
pair_coeff 2 48 0.000000e+00 0.000000e+00 4.009755e+04 # CA2-CA26 type=non-native eps=0.002390 sigma=4.000000
pair_coeff 2 49 0.000000e+00 0.000000e+00 3.442571e+03 # CA2-SC26 type=non-native eps=0.002390 sigma=3.259921
pair_coeff 2 50 0.000000e+00 0.000000e+00 4.009755e+04 # CA2-CA27 type=non-native eps=0.002390 sigma=4.000000
pair_coeff 2 51 0.000000e+00 0.000000e+00 1.085818e+04 # CA2-SC27 type=non-native eps=0.002390 sigma=3.587401
pair_coeff 2 52 0.000000e+00 0.000000e+00 4.009755e+04 # CA2-CA28 type=non-native eps=0.002390 sigma=4.000000
pair_coeff 2 53 0.000000e+00 0.000000e+00 4.009755e+04 # CA2-SC28 type=non-native eps=0.002390 sigma=4.000000
pair_coeff 2 54 0.000000e+00 0.000000e+00 4.009755e+04 # CA2-CA29 type=non-native eps=0.002390 sigma=4.000000
pair_coeff 2 55 0.000000e+00 0.000000e+00 4.009755e+04 # CA2-SC29 type=non-native eps=0.002390 sigma=4.000000
pair_coeff 2 56 0.000000e+00 0.000000e+00 4.009755e+04 # CA2-CA30 type=non-native eps=0.002390 sigma=4.000000
pair_coeff 2 57 0.000000e+00 0.000000e+00 4.009755e+04 # CA2-SC30 type=non-native eps=0.002390 sigma=4.000000
pair_coeff 2 58 0.000000e+00 0.000000e+00 4.009755e+04 # CA2-CA31 type=non-native eps=0.002390 sigma=4.000000
pair_coeff 2 59 0.000000e+00 0.000000e+00 1.737309e+05 # CA2-SC31 type=non-native eps=0.002390 sigma=4.519842
pair_coeff 2 60 0.000000e+00 0.000000e+00 4.009755e+04 # CA2-CA32 type=non-native eps=0.002390 sigma=4.000000
pair_coeff 2 61 0.000000e+00 0.000000e+00 9.272377e+04 # CA2-SC32 type=non-native eps=0.002390 sigma=4.289428
pair_coeff 2 62 0.000000e+00 0.000000e+00 4.009755e+04 # CA2-CA33 type=non-native eps=0.002390 sigma=4.000000
pair_coeff 2 63 0.000000e+00 0.000000e+00 1.085818e+04 # CA2-SC33 type=non-native eps=0.002390 sigma=3.587401
pair_coeff 2 64 0.000000e+00 0.000000e+00 4.009755e+04 # CA2-CA34 type=non-native eps=0.002390 sigma=4.000000
pair_coeff 2 65 0.000000e+00 0.000000e+00 1.293687e+05 # CA2-SC34 type=non-native eps=0.002390 sigma=4.410142
pair_coeff 2 66 0.000000e+00 0.000000e+00 4.009755e+04 # CA2-CA35 type=non-native eps=0.002390 sigma=4.000000
pair_coeff 2 67 0.000000e+00 0.000000e+00 3.442571e+03 # CA2-SC35 type=non-native eps=0.002390 sigma=3.259921
pair_coeff 2 68 0.000000e+00 0.000000e+00 4.009755e+04 # CA2-CA36 type=non-native eps=0.002390 sigma=4.000000
pair_coeff 2 69 0.000000e+00 0.000000e+00 4.009755e+04 # CA2-SC36 type=non-native eps=0.002390 sigma=4.000000
pair_coeff 2 70 0.000000e+00 0.000000e+00 4.009755e+04 # CA2-CA37 type=non-native eps=0.002390 sigma=4.000000
pair_coeff 2 71 0.000000e+00 0.000000e+00 6.317440e+04 # CA2-SC37 type=non-native eps=0.002390 sigma=4.154435
pair_coeff 2 72 0.000000e+00 0.000000e+00 4.009755e+04 # CA2-CA38 type=non-native eps=0.002390 sigma=4.000000
pair_coeff 2 73 0.000000e+00 0.000000e+00 2.286802e+04 # CA2-SC38 type=non-native eps=0.002390 sigma=3.817121
pair_coeff 2 74 0.000000e+00 0.000000e+00 4.009755e+04 # CA2-CA39 type=non-native eps=0.002390 sigma=4.000000
pair_coeff 2 75 0.000000e+00 0.000000e+00 2.286802e+04 # CA2-SC39 type=non-native eps=0.002390 sigma=3.817121
pair_coeff 2 76 0.000000e+00 0.000000e+00 4.009755e+04 # CA2-CA40 type=non-native eps=0.002390 sigma=4.000000
pair_coeff 2 77 0.000000e+00 0.000000e+00 1.293687e+05 # CA2-SC40 type=non-native eps=0.002390 sigma=4.410142
pair_coeff 2 78 0.000000e+00 0.000000e+00 4.009755e+04 # CA2-CA41 type=non-native eps=0.002390 sigma=4.000000
pair_coeff 2 79 0.000000e+00 0.000000e+00 3.442571e+03 # CA2-SC41 type=non-native eps=0.002390 sigma=3.259921
pair_coeff 2 80 0.000000e+00 0.000000e+00 4.009755e+04 # CA2-CA42 type=non-native eps=0.002390 sigma=4.000000
pair_coeff 2 81 0.000000e+00 0.000000e+00 1.293687e+05 # CA2-SC42 type=non-native eps=0.002390 sigma=4.410142
pair_coeff 2 82 0.000000e+00 0.000000e+00 4.009755e+04 # CA2-CA43 type=non-native eps=0.002390 sigma=4.000000
pair_coeff 2 83 0.000000e+00 0.000000e+00 6.317440e+04 # CA2-SC43 type=non-native eps=0.002390 sigma=4.154435
pair_coeff 2 84 0.000000e+00 0.000000e+00 4.009755e+04 # CA2-CA44 type=non-native eps=0.002390 sigma=4.000000
pair_coeff 2 85 0.000000e+00 0.000000e+00 6.317440e+04 # CA2-SC44 type=non-native eps=0.002390 sigma=4.154435
pair_coeff 2 86 0.000000e+00 0.000000e+00 4.009755e+04 # CA2-CA45 type=non-native eps=0.002390 sigma=4.000000
pair_coeff 2 87 0.000000e+00 0.000000e+00 4.009755e+04 # CA2-SC45 type=non-native eps=0.002390 sigma=4.000000
pair_coeff 2 88 0.000000e+00 0.000000e+00 4.009755e+04 # CA2-CA46 type=non-native eps=0.002390 sigma=4.000000
pair_coeff 2 89 0.000000e+00 0.000000e+00 2.286802e+04 # CA2-SC46 type=non-native eps=0.002390 sigma=3.817121
pair_coeff 2 90 0.000000e+00 0.000000e+00 4.009755e+04 # CA2-CA47 type=non-native eps=0.002390 sigma=4.000000
pair_coeff 2 91 0.000000e+00 0.000000e+00 3.442571e+03 # CA2-SC47 type=non-native eps=0.002390 sigma=3.259921
pair_coeff 2 92 0.000000e+00 0.000000e+00 4.009755e+04 # CA2-CA48 type=non-native eps=0.002390 sigma=4.000000
pair_coeff 2 93 0.000000e+00 0.000000e+00 4.009755e+04 # CA2-CA49 type=non-native eps=0.002390 sigma=4.000000
pair_coeff 2 94 0.000000e+00 0.000000e+00 2.286802e+04 # CA2-SC49 type=non-native eps=0.002390 sigma=3.817121
pair_coeff 2 95 0.000000e+00 0.000000e+00 4.009755e+04 # CA2-CA50 type=non-native eps=0.002390 sigma=4.000000
pair_coeff 2 96 0.000000e+00 0.000000e+00 4.009755e+04 # CA2-SC50 type=non-native eps=0.002390 sigma=4.000000
pair_coeff 2 97 0.000000e+00 0.000000e+00 4.009755e+04 # CA2-CA51 type=non-native eps=0.002390 sigma=4.000000
pair_coeff 2 98 0.000000e+00 0.000000e+00 1.737309e+05 # CA2-SC51 type=non-native eps=0.002390 sigma=4.519842
pair_coeff 2 99 0.000000e+00 0.000000e+00 4.009755e+04 # CA2-CA52 type=non-native eps=0.002390 sigma=4.000000
pair_coeff 2 100 0.000000e+00 0.000000e+00 1.293687e+05 # CA2-SC52 type=non-native eps=0.002390 sigma=4.410142
pair_coeff 2 101 0.000000e+00 0.000000e+00 4.009755e+04 # CA2-CA53 type=non-native eps=0.002390 sigma=4.000000
pair_coeff 2 102 0.000000e+00 0.000000e+00 4.009755e+04 # CA2-SC53 type=non-native eps=0.002390 sigma=4.000000
pair_coeff 2 103 0.000000e+00 0.000000e+00 4.009755e+04 # CA2-CA54 type=non-native eps=0.002390 sigma=4.000000
pair_coeff 2 104 0.000000e+00 0.000000e+00 4.009755e+04 # CA2-SC54 type=non-native eps=0.002390 sigma=4.000000
pair_coeff 2 105 0.000000e+00 0.000000e+00 4.009755e+04 # CA2-CA55 type=non-native eps=0.002390 sigma=4.000000
pair_coeff 2 106 0.000000e+00 0.000000e+00 2.286802e+04 # CA2-SC55 type=non-native eps=0.002390 sigma=3.817121
pair_coeff 2 107 0.000000e+00 0.000000e+00 4.009755e+04 # CA2-CA56 type=non-native eps=0.002390 sigma=4.000000
pair_coeff 2 108 0.000000e+00 0.000000e+00 6.317440e+04 # CA2-SC56 type=non-native eps=0.002390 sigma=4.154435
pair_coeff 2 109 0.000000e+00 0.000000e+00 4.009755e+04 # CA2-CA57 type=non-native eps=0.002390 sigma=4.000000
pair_coeff 2 110 0.000000e+00 0.000000e+00 4.009755e+04 # CA2-SC57 type=non-native eps=0.002390 sigma=4.000000
pair_coeff 2 111 0.000000e+00 0.000000e+00 4.009755e+04 # CA2-CA58 type=non-native eps=0.002390 sigma=4.000000
pair_coeff 2 112 0.000000e+00 0.000000e+00 4.009755e+04 # CA2-CA59 type=non-native eps=0.002390 sigma=4.000000
pair_coeff 2 113 0.000000e+00 0.000000e+00 1.293687e+05 # CA2-SC59 type=non-native eps=0.002390 sigma=4.410142
pair_coeff 2 114 0.000000e+00 0.000000e+00 4.009755e+04 # CA2-CA60 type=non-native eps=0.002390 sigma=4.000000
pair_coeff 2 115 0.000000e+00 0.000000e+00 2.286802e+04 # CA2-SC60 type=non-native eps=0.002390 sigma=3.817121
pair_coeff 2 116 0.000000e+00 0.000000e+00 4.009755e+04 # CA2-CA61 type=non-native eps=0.002390 sigma=4.000000
pair_coeff 2 117 0.000000e+00 0.000000e+00 2.286802e+04 # CA2-SC61 type=non-native eps=0.002390 sigma=3.817121
pair_coeff 2 118 0.000000e+00 0.000000e+00 4.009755e+04 # CA2-CA62 type=non-native eps=0.002390 sigma=4.000000
pair_coeff 2 119 0.000000e+00 0.000000e+00 1.085818e+04 # CA2-SC62 type=non-native eps=0.002390 sigma=3.587401
pair_coeff 2 120 0.000000e+00 0.000000e+00 4.009755e+04 # CA2-CA63 type=non-native eps=0.002390 sigma=4.000000
pair_coeff 2 121 0.000000e+00 0.000000e+00 2.286802e+04 # CA2-SC63 type=non-native eps=0.002390 sigma=3.817121
pair_coeff 2 122 0.000000e+00 0.000000e+00 4.009755e+04 # CA2-CA64 type=non-native eps=0.002390 sigma=4.000000
pair_coeff 2 123 0.000000e+00 0.000000e+00 6.317440e+04 # CA2-SC64 type=non-native eps=0.002390 sigma=4.154435
pair_coeff 2 124 0.000000e+00 0.000000e+00 4.009755e+04 # CA2-CA65 type=non-native eps=0.002390 sigma=4.000000
pair_coeff 2 125 0.000000e+00 0.000000e+00 2.286802e+04 # CA2-SC65 type=non-native eps=0.002390 sigma=3.817121
pair_coeff 2 126 0.000000e+00 0.000000e+00 4.009755e+04 # CA2-CA66 type=non-native eps=0.002390 sigma=4.000000
pair_coeff 2 127 0.000000e+00 0.000000e+00 9.272377e+04 # CA2-SC66 type=non-native eps=0.002390 sigma=4.289428
pair_coeff 2 128 0.000000e+00 0.000000e+00 4.009755e+04 # CA2-CA67 type=non-native eps=0.002390 sigma=4.000000
pair_coeff 2 129 0.000000e+00 0.000000e+00 4.009755e+04 # CA2-SC67 type=non-native eps=0.002390 sigma=4.000000
pair_coeff 2 130 0.000000e+00 0.000000e+00 4.009755e+04 # CA2-CA68 type=non-native eps=0.002390 sigma=4.000000
pair_coeff 2 131 0.000000e+00 0.000000e+00 4.009755e+04 # CA2-SC68 type=non-native eps=0.002390 sigma=4.000000
pair_coeff 2 132 0.000000e+00 0.000000e+00 4.009755e+04 # CA2-CA69 type=non-native eps=0.002390 sigma=4.000000
pair_coeff 2 133 0.000000e+00 0.000000e+00 4.009755e+04 # CA2-SC69 type=non-native eps=0.002390 sigma=4.000000
pair_coeff 2 134 0.000000e+00 0.000000e+00 4.009755e+04 # CA2-CA70 type=non-native eps=0.002390 sigma=4.000000
pair_coeff 2 135 0.000000e+00 0.000000e+00 1.085818e+04 # CA2-SC70 type=non-native eps=0.002390 sigma=3.587401
pair_coeff 2 136 0.000000e+00 0.000000e+00 4.009755e+04 # CA2-CA71 type=non-native eps=0.002390 sigma=4.000000
pair_coeff 2 137 0.000000e+00 0.000000e+00 2.286802e+04 # CA2-SC71 type=non-native eps=0.002390 sigma=3.817121
pair_coeff 2 138 0.000000e+00 0.000000e+00 4.009755e+04 # CA2-CA72 type=non-native eps=0.002390 sigma=4.000000
pair_coeff 2 139 0.000000e+00 0.000000e+00 1.293687e+05 # CA2-SC72 type=non-native eps=0.002390 sigma=4.410142
pair_coeff 2 140 0.000000e+00 0.000000e+00 4.009755e+04 # CA2-CA73 type=non-native eps=0.002390 sigma=4.000000
pair_coeff 2 141 0.000000e+00 0.000000e+00 9.272377e+04 # CA2-SC73 type=non-native eps=0.002390 sigma=4.289428
pair_coeff 2 142 0.000000e+00 0.000000e+00 4.009755e+04 # CA2-CA74 type=non-native eps=0.002390 sigma=4.000000
pair_coeff 2 143 0.000000e+00 0.000000e+00 4.009755e+04 # CA2-SC74 type=non-native eps=0.002390 sigma=4.000000
pair_coeff 2 144 0.000000e+00 0.000000e+00 4.009755e+04 # CA2-CA75 type=non-native eps=0.002390 sigma=4.000000
pair_coeff 2 145 0.000000e+00 0.000000e+00 6.317440e+04 # CA2-SC75 type=non-native eps=0.002390 sigma=4.154435
pair_coeff 2 146 0.000000e+00 0.000000e+00 4.009755e+04 # CA2-CA76 type=non-native eps=0.002390 sigma=4.000000
pair_coeff 2 147 0.000000e+00 0.000000e+00 2.286802e+04 # CA2-SC76 type=non-native eps=0.002390 sigma=3.817121
pair_coeff 2 148 0.000000e+00 0.000000e+00 4.009755e+04 # CA2-CA77 type=non-native eps=0.002390 sigma=4.000000
pair_coeff 2 149 0.000000e+00 0.000000e+00 9.272377e+04 # CA2-SC77 type=non-native eps=0.002390 sigma=4.289428
pair_coeff 2 150 0.000000e+00 0.000000e+00 4.009755e+04 # CA2-CA78 type=non-native eps=0.002390 sigma=4.000000
pair_coeff 2 151 0.000000e+00 0.000000e+00 4.009755e+04 # CA2-SC78 type=non-native eps=0.002390 sigma=4.000000
pair_coeff 2 152 0.000000e+00 0.000000e+00 4.009755e+04 # CA2-CA79 type=non-native eps=0.002390 sigma=4.000000
pair_coeff 2 153 0.000000e+00 0.000000e+00 6.317440e+04 # CA2-SC79 type=non-native eps=0.002390 sigma=4.154435
pair_coeff 2 154 0.000000e+00 0.000000e+00 4.009755e+04 # CA2-CA80 type=non-native eps=0.002390 sigma=4.000000
pair_coeff 2 155 0.000000e+00 0.000000e+00 1.293687e+05 # CA2-SC80 type=non-native eps=0.002390 sigma=4.410142
pair_coeff 2 156 0.000000e+00 0.000000e+00 4.009755e+04 # CA2-CA81 type=non-native eps=0.002390 sigma=4.000000
pair_coeff 2 157 0.000000e+00 0.000000e+00 6.317440e+04 # CA2-SC81 type=non-native eps=0.002390 sigma=4.154435
pair_coeff 2 158 0.000000e+00 0.000000e+00 4.009755e+04 # CA2-CA82 type=non-native eps=0.002390 sigma=4.000000
pair_coeff 2 159 0.000000e+00 0.000000e+00 3.442571e+03 # CA2-SC82 type=non-native eps=0.002390 sigma=3.259921
pair_coeff 2 160 0.000000e+00 0.000000e+00 4.009755e+04 # CA2-CA83 type=non-native eps=0.002390 sigma=4.000000
pair_coeff 2 161 0.000000e+00 0.000000e+00 1.293687e+05 # CA2-SC83 type=non-native eps=0.002390 sigma=4.410142
pair_coeff 2 162 0.000000e+00 0.000000e+00 4.009755e+04 # CA2-CA84 type=non-native eps=0.002390 sigma=4.000000
pair_coeff 2 163 0.000000e+00 0.000000e+00 1.085818e+04 # CA2-SC84 type=non-native eps=0.002390 sigma=3.587401
pair_coeff 2 164 0.000000e+00 0.000000e+00 4.009755e+04 # CA2-CA85 type=non-native eps=0.002390 sigma=4.000000
pair_coeff 2 165 0.000000e+00 0.000000e+00 1.085818e+04 # CA2-SC85 type=non-native eps=0.002390 sigma=3.587401
pair_coeff 2 166 0.000000e+00 0.000000e+00 4.009755e+04 # CA2-CA86 type=non-native eps=0.002390 sigma=4.000000
pair_coeff 2 167 0.000000e+00 0.000000e+00 1.293687e+05 # CA2-SC86 type=non-native eps=0.002390 sigma=4.410142
pair_coeff 2 168 0.000000e+00 0.000000e+00 4.009755e+04 # CA2-CA87 type=non-native eps=0.002390 sigma=4.000000
pair_coeff 2 169 0.000000e+00 0.000000e+00 6.317440e+04 # CA2-SC87 type=non-native eps=0.002390 sigma=4.154435
pair_coeff 2 170 0.000000e+00 0.000000e+00 4.009755e+04 # CA2-CA88 type=non-native eps=0.002390 sigma=4.000000
pair_coeff 2 171 0.000000e+00 0.000000e+00 4.009755e+04 # CA2-SC88 type=non-native eps=0.002390 sigma=4.000000
pair_coeff 2 172 0.000000e+00 0.000000e+00 4.009755e+04 # CA2-CA89 type=non-native eps=0.002390 sigma=4.000000
pair_coeff 2 173 0.000000e+00 0.000000e+00 1.737309e+05 # CA2-SC89 type=non-native eps=0.002390 sigma=4.519842
pair_coeff 2 174 0.000000e+00 0.000000e+00 4.009755e+04 # CA2-CA90 type=non-native eps=0.002390 sigma=4.000000
pair_coeff 2 175 0.000000e+00 0.000000e+00 3.442571e+03 # CA2-SC90 type=non-native eps=0.002390 sigma=3.259921
pair_coeff 2 176 0.000000e+00 0.000000e+00 4.009755e+04 # CA2-CA91 type=non-native eps=0.002390 sigma=4.000000
pair_coeff 2 177 0.000000e+00 0.000000e+00 2.286802e+04 # CA2-SC91 type=non-native eps=0.002390 sigma=3.817121
pair_coeff 2 178 0.000000e+00 0.000000e+00 4.009755e+04 # CA2-CA92 type=non-native eps=0.002390 sigma=4.000000
pair_coeff 2 179 0.000000e+00 0.000000e+00 2.286802e+04 # CA2-SC92 type=non-native eps=0.002390 sigma=3.817121
pair_coeff 2 180 0.000000e+00 0.000000e+00 4.009755e+04 # CA2-CA93 type=non-native eps=0.002390 sigma=4.000000
pair_coeff 2 181 0.000000e+00 0.000000e+00 2.880942e+05 # CA2-SC93 type=non-native eps=0.002390 sigma=4.714418
pair_coeff 2 182 0.000000e+00 0.000000e+00 4.009755e+04 # CA2-CA94 type=non-native eps=0.002390 sigma=4.000000
pair_coeff 2 183 0.000000e+00 0.000000e+00 6.317440e+04 # CA2-SC94 type=non-native eps=0.002390 sigma=4.154435
pair_coeff 2 184 0.000000e+00 0.000000e+00 4.009755e+04 # CA2-CA95 type=non-native eps=0.002390 sigma=4.000000
pair_coeff 2 185 0.000000e+00 0.000000e+00 4.009755e+04 # CA2-CA96 type=non-native eps=0.002390 sigma=4.000000
pair_coeff 2 186 0.000000e+00 0.000000e+00 2.286802e+04 # CA2-SC96 type=non-native eps=0.002390 sigma=3.817121
pair_coeff 2 187 0.000000e+00 0.000000e+00 4.009755e+04 # CA2-CA97 type=non-native eps=0.002390 sigma=4.000000
pair_coeff 2 188 0.000000e+00 0.000000e+00 4.009755e+04 # CA2-SC97 type=non-native eps=0.002390 sigma=4.000000
pair_coeff 2 189 0.000000e+00 0.000000e+00 4.009755e+04 # CA2-CA98 type=non-native eps=0.002390 sigma=4.000000
pair_coeff 2 190 0.000000e+00 0.000000e+00 2.286802e+04 # CA2-SC98 type=non-native eps=0.002390 sigma=3.817121
pair_coeff 2 191 0.000000e+00 0.000000e+00 4.009755e+04 # CA2-CA99 type=non-native eps=0.002390 sigma=4.000000
pair_coeff 2 192 0.000000e+00 0.000000e+00 4.009755e+04 # CA2-SC99 type=non-native eps=0.002390 sigma=4.000000
pair_coeff 2 193 0.000000e+00 0.000000e+00 4.009755e+04 # CA2-CA100 type=non-native eps=0.002390 sigma=4.000000
pair_coeff 2 194 0.000000e+00 0.000000e+00 1.085818e+04 # CA2-SC100 type=non-native eps=0.002390 sigma=3.587401
pair_coeff 2 195 0.000000e+00 0.000000e+00 4.009755e+04 # CA2-CA101 type=non-native eps=0.002390 sigma=4.000000
pair_coeff 2 196 0.000000e+00 0.000000e+00 6.317440e+04 # CA2-SC101 type=non-native eps=0.002390 sigma=4.154435
pair_coeff 2 197 0.000000e+00 0.000000e+00 4.009755e+04 # CA2-CA102 type=non-native eps=0.002390 sigma=4.000000
pair_coeff 2 198 0.000000e+00 0.000000e+00 1.085818e+04 # CA2-SC102 type=non-native eps=0.002390 sigma=3.587401
pair_coeff 2 199 0.000000e+00 0.000000e+00 4.009755e+04 # CA2-CA103 type=non-native eps=0.002390 sigma=4.000000
pair_coeff 2 200 0.000000e+00 0.000000e+00 2.286802e+04 # CA2-SC103 type=non-native eps=0.002390 sigma=3.817121
pair_coeff 2 201 0.000000e+00 0.000000e+00 4.009755e+04 # CA2-CA104 type=non-native eps=0.002390 sigma=4.000000
pair_coeff 2 202 0.000000e+00 0.000000e+00 1.085818e+04 # CA2-SC104 type=non-native eps=0.002390 sigma=3.587401
pair_coeff 2 203 0.000000e+00 0.000000e+00 4.009755e+04 # CA2-CA105 type=non-native eps=0.002390 sigma=4.000000
pair_coeff 2 204 0.000000e+00 0.000000e+00 6.317440e+04 # CA2-SC105 type=non-native eps=0.002390 sigma=4.154435
pair_coeff 2 205 0.000000e+00 0.000000e+00 4.009755e+04 # CA2-CA106 type=non-native eps=0.002390 sigma=4.000000
pair_coeff 2 206 0.000000e+00 0.000000e+00 4.009755e+04 # CA2-SC106 type=non-native eps=0.002390 sigma=4.000000
pair_coeff 2 207 0.000000e+00 0.000000e+00 4.009755e+04 # CA2-CA107 type=non-native eps=0.002390 sigma=4.000000
pair_coeff 2 208 0.000000e+00 0.000000e+00 1.085818e+04 # CA2-SC107 type=non-native eps=0.002390 sigma=3.587401
pair_coeff 3 3 0.000000e+00 0.000000e+00 1.268711e+04 # SC2-SC2 type=non-native eps=0.002390 sigma=3.634241
pair_coeff 3 4 0.000000e+00 0.000000e+00 2.286802e+04 # SC2-CA3 type=non-native eps=0.002390 sigma=3.817121
pair_coeff 3 5 0.000000e+00 0.000000e+00 2.286802e+04 # SC2-SC3 type=non-native eps=0.002390 sigma=3.817121
pair_coeff 3 6 0.000000e+00 0.000000e+00 2.286802e+04 # SC2-CA4 type=non-native eps=0.002390 sigma=3.817121
pair_coeff 3 7 0.000000e+00 0.000000e+00 2.286802e+04 # SC2-SC4 type=non-native eps=0.002390 sigma=3.817121
pair_coeff 3 8 0.000000e+00 0.000000e+00 2.286802e+04 # SC2-CA5 type=non-native eps=0.002390 sigma=3.817121
pair_coeff 3 9 0.000000e+00 0.000000e+00 1.721862e+03 # SC2-SC5 type=non-native eps=0.002390 sigma=3.077042
pair_coeff 3 10 0.000000e+00 0.000000e+00 2.286802e+04 # SC2-CA6 type=non-native eps=0.002390 sigma=3.817121
pair_coeff 3 11 0.000000e+00 0.000000e+00 5.795236e+03 # SC2-SC6 type=non-native eps=0.002390 sigma=3.404522
pair_coeff 3 12 0.000000e+00 0.000000e+00 2.286802e+04 # SC2-CA7 type=non-native eps=0.002390 sigma=3.817121
pair_coeff 3 13 0.000000e+00 0.000000e+00 1.268711e+04 # SC2-SC7 type=non-native eps=0.002390 sigma=3.634241
pair_coeff 3 14 0.000000e+00 0.000000e+00 2.286802e+04 # SC2-CA8 type=non-native eps=0.002390 sigma=3.817121
pair_coeff 3 15 0.000000e+00 0.000000e+00 3.680656e+04 # SC2-SC8 type=non-native eps=0.002390 sigma=3.971555
pair_coeff 3 16 0.000000e+00 0.000000e+00 2.286802e+04 # SC2-CA9 type=non-native eps=0.002390 sigma=3.817121
pair_coeff 3 17 0.000000e+00 0.000000e+00 3.680656e+04 # SC2-SC9 type=non-native eps=0.002390 sigma=3.971555
pair_coeff 3 18 0.000000e+00 0.000000e+00 2.286802e+04 # SC2-CA10 type=non-native eps=0.002390 sigma=3.817121
pair_coeff 3 19 0.000000e+00 0.000000e+00 3.680656e+04 # SC2-SC10 type=non-native eps=0.002390 sigma=3.971555
pair_coeff 3 20 0.000000e+00 0.000000e+00 2.286802e+04 # SC2-CA11 type=non-native eps=0.002390 sigma=3.817121
pair_coeff 3 21 0.000000e+00 0.000000e+00 2.286802e+04 # SC2-CA12 type=non-native eps=0.002390 sigma=3.817121
pair_coeff 3 22 0.000000e+00 0.000000e+00 1.268711e+04 # SC2-SC12 type=non-native eps=0.002390 sigma=3.634241
pair_coeff 3 23 0.000000e+00 0.000000e+00 2.286802e+04 # SC2-CA13 type=non-native eps=0.002390 sigma=3.817121
pair_coeff 3 24 0.000000e+00 0.000000e+00 7.782318e+04 # SC2-SC13 type=non-native eps=0.002390 sigma=4.227263
pair_coeff 3 25 0.000000e+00 0.000000e+00 2.286802e+04 # SC2-CA14 type=non-native eps=0.002390 sigma=3.817121
pair_coeff 3 26 0.000000e+00 0.000000e+00 7.782318e+04 # SC2-SC14 type=non-native eps=0.002390 sigma=4.227263
pair_coeff 3 27 0.000000e+00 0.000000e+00 2.286802e+04 # SC2-CA15 type=non-native eps=0.002390 sigma=3.817121
pair_coeff 3 28 0.000000e+00 0.000000e+00 1.721862e+03 # SC2-SC15 type=non-native eps=0.002390 sigma=3.077042
pair_coeff 3 29 0.000000e+00 0.000000e+00 2.286802e+04 # SC2-CA16 type=non-native eps=0.002390 sigma=3.817121
pair_coeff 3 30 0.000000e+00 0.000000e+00 2.286802e+04 # SC2-SC16 type=non-native eps=0.002390 sigma=3.817121
pair_coeff 3 31 0.000000e+00 0.000000e+00 2.286802e+04 # SC2-CA17 type=non-native eps=0.002390 sigma=3.817121
pair_coeff 3 32 0.000000e+00 0.000000e+00 2.286802e+04 # SC2-SC17 type=non-native eps=0.002390 sigma=3.817121
pair_coeff 3 33 0.000000e+00 0.000000e+00 2.286802e+04 # SC2-CA18 type=non-native eps=0.002390 sigma=3.817121
pair_coeff 3 34 0.000000e+00 0.000000e+00 7.782318e+04 # SC2-SC18 type=non-native eps=0.002390 sigma=4.227263
pair_coeff 3 35 0.000000e+00 0.000000e+00 2.286802e+04 # SC2-CA19 type=non-native eps=0.002390 sigma=3.817121
pair_coeff 3 36 0.000000e+00 0.000000e+00 1.721862e+03 # SC2-SC19 type=non-native eps=0.002390 sigma=3.077042
pair_coeff 3 37 0.000000e+00 0.000000e+00 2.286802e+04 # SC2-CA20 type=non-native eps=0.002390 sigma=3.817121
pair_coeff 3 38 0.000000e+00 0.000000e+00 1.268711e+04 # SC2-SC20 type=non-native eps=0.002390 sigma=3.634241
pair_coeff 3 39 0.000000e+00 0.000000e+00 2.286802e+04 # SC2-CA21 type=non-native eps=0.002390 sigma=3.817121
pair_coeff 3 40 0.000000e+00 0.000000e+00 2.286802e+04 # SC2-CA22 type=non-native eps=0.002390 sigma=3.817121
pair_coeff 3 41 0.000000e+00 0.000000e+00 3.680656e+04 # SC2-SC22 type=non-native eps=0.002390 sigma=3.971555
pair_coeff 3 42 0.000000e+00 0.000000e+00 2.286802e+04 # SC2-CA23 type=non-native eps=0.002390 sigma=3.817121
pair_coeff 3 43 0.000000e+00 0.000000e+00 1.058342e+05 # SC2-SC23 type=non-native eps=0.002390 sigma=4.336963
pair_coeff 3 44 0.000000e+00 0.000000e+00 2.286802e+04 # SC2-CA24 type=non-native eps=0.002390 sigma=3.817121
pair_coeff 3 45 0.000000e+00 0.000000e+00 2.286802e+04 # SC2-SC24 type=non-native eps=0.002390 sigma=3.817121
pair_coeff 3 46 0.000000e+00 0.000000e+00 2.286802e+04 # SC2-CA25 type=non-native eps=0.002390 sigma=3.817121
pair_coeff 3 47 0.000000e+00 0.000000e+00 3.680656e+04 # SC2-SC25 type=non-native eps=0.002390 sigma=3.971555
pair_coeff 3 48 0.000000e+00 0.000000e+00 2.286802e+04 # SC2-CA26 type=non-native eps=0.002390 sigma=3.817121
pair_coeff 3 49 0.000000e+00 0.000000e+00 1.721862e+03 # SC2-SC26 type=non-native eps=0.002390 sigma=3.077042
pair_coeff 3 50 0.000000e+00 0.000000e+00 2.286802e+04 # SC2-CA27 type=non-native eps=0.002390 sigma=3.817121
pair_coeff 3 51 0.000000e+00 0.000000e+00 5.795236e+03 # SC2-SC27 type=non-native eps=0.002390 sigma=3.404522
pair_coeff 3 52 0.000000e+00 0.000000e+00 2.286802e+04 # SC2-CA28 type=non-native eps=0.002390 sigma=3.817121
pair_coeff 3 53 0.000000e+00 0.000000e+00 2.286802e+04 # SC2-SC28 type=non-native eps=0.002390 sigma=3.817121
pair_coeff 3 54 0.000000e+00 0.000000e+00 2.286802e+04 # SC2-CA29 type=non-native eps=0.002390 sigma=3.817121
pair_coeff 3 55 0.000000e+00 0.000000e+00 2.286802e+04 # SC2-SC29 type=non-native eps=0.002390 sigma=3.817121
pair_coeff 3 56 0.000000e+00 0.000000e+00 2.286802e+04 # SC2-CA30 type=non-native eps=0.002390 sigma=3.817121
pair_coeff 3 57 0.000000e+00 0.000000e+00 2.286802e+04 # SC2-SC30 type=non-native eps=0.002390 sigma=3.817121
pair_coeff 3 58 0.000000e+00 0.000000e+00 2.286802e+04 # SC2-CA31 type=non-native eps=0.002390 sigma=3.817121
pair_coeff 3 59 0.000000e+00 0.000000e+00 1.058342e+05 # SC2-SC31 type=non-native eps=0.002390 sigma=4.336963
pair_coeff 3 60 0.000000e+00 0.000000e+00 2.286802e+04 # SC2-CA32 type=non-native eps=0.002390 sigma=3.817121
pair_coeff 3 61 0.000000e+00 0.000000e+00 5.496954e+04 # SC2-SC32 type=non-native eps=0.002390 sigma=4.106549
pair_coeff 3 62 0.000000e+00 0.000000e+00 2.286802e+04 # SC2-CA33 type=non-native eps=0.002390 sigma=3.817121
pair_coeff 3 63 0.000000e+00 0.000000e+00 5.795236e+03 # SC2-SC33 type=non-native eps=0.002390 sigma=3.404522
pair_coeff 3 64 0.000000e+00 0.000000e+00 2.286802e+04 # SC2-CA34 type=non-native eps=0.002390 sigma=3.817121
pair_coeff 3 65 0.000000e+00 0.000000e+00 7.782318e+04 # SC2-SC34 type=non-native eps=0.002390 sigma=4.227263
pair_coeff 3 66 0.000000e+00 0.000000e+00 2.286802e+04 # SC2-CA35 type=non-native eps=0.002390 sigma=3.817121
pair_coeff 3 67 0.000000e+00 0.000000e+00 1.721862e+03 # SC2-SC35 type=non-native eps=0.002390 sigma=3.077042
pair_coeff 3 68 0.000000e+00 0.000000e+00 2.286802e+04 # SC2-CA36 type=non-native eps=0.002390 sigma=3.817121
pair_coeff 3 69 0.000000e+00 0.000000e+00 2.286802e+04 # SC2-SC36 type=non-native eps=0.002390 sigma=3.817121
pair_coeff 3 70 0.000000e+00 0.000000e+00 2.286802e+04 # SC2-CA37 type=non-native eps=0.002390 sigma=3.817121
pair_coeff 3 71 0.000000e+00 0.000000e+00 3.680656e+04 # SC2-SC37 type=non-native eps=0.002390 sigma=3.971555
pair_coeff 3 72 0.000000e+00 0.000000e+00 2.286802e+04 # SC2-CA38 type=non-native eps=0.002390 sigma=3.817121
pair_coeff 3 73 0.000000e+00 0.000000e+00 1.268711e+04 # SC2-SC38 type=non-native eps=0.002390 sigma=3.634241
pair_coeff 3 74 0.000000e+00 0.000000e+00 2.286802e+04 # SC2-CA39 type=non-native eps=0.002390 sigma=3.817121
pair_coeff 3 75 0.000000e+00 0.000000e+00 1.268711e+04 # SC2-SC39 type=non-native eps=0.002390 sigma=3.634241
pair_coeff 3 76 0.000000e+00 0.000000e+00 2.286802e+04 # SC2-CA40 type=non-native eps=0.002390 sigma=3.817121
pair_coeff 3 77 0.000000e+00 0.000000e+00 7.782318e+04 # SC2-SC40 type=non-native eps=0.002390 sigma=4.227263
pair_coeff 3 78 0.000000e+00 0.000000e+00 2.286802e+04 # SC2-CA41 type=non-native eps=0.002390 sigma=3.817121
pair_coeff 3 79 0.000000e+00 0.000000e+00 1.721862e+03 # SC2-SC41 type=non-native eps=0.002390 sigma=3.077042
pair_coeff 3 80 0.000000e+00 0.000000e+00 2.286802e+04 # SC2-CA42 type=non-native eps=0.002390 sigma=3.817121
pair_coeff 3 81 0.000000e+00 0.000000e+00 7.782318e+04 # SC2-SC42 type=non-native eps=0.002390 sigma=4.227263
pair_coeff 3 82 0.000000e+00 0.000000e+00 2.286802e+04 # SC2-CA43 type=non-native eps=0.002390 sigma=3.817121
pair_coeff 3 83 0.000000e+00 0.000000e+00 3.680656e+04 # SC2-SC43 type=non-native eps=0.002390 sigma=3.971555
pair_coeff 3 84 0.000000e+00 0.000000e+00 2.286802e+04 # SC2-CA44 type=non-native eps=0.002390 sigma=3.817121
pair_coeff 3 85 0.000000e+00 0.000000e+00 3.680656e+04 # SC2-SC44 type=non-native eps=0.002390 sigma=3.971555
pair_coeff 3 86 0.000000e+00 0.000000e+00 2.286802e+04 # SC2-CA45 type=non-native eps=0.002390 sigma=3.817121
pair_coeff 3 87 0.000000e+00 0.000000e+00 2.286802e+04 # SC2-SC45 type=non-native eps=0.002390 sigma=3.817121
pair_coeff 3 88 0.000000e+00 0.000000e+00 2.286802e+04 # SC2-CA46 type=non-native eps=0.002390 sigma=3.817121
pair_coeff 3 89 0.000000e+00 0.000000e+00 1.268711e+04 # SC2-SC46 type=non-native eps=0.002390 sigma=3.634241
pair_coeff 3 90 0.000000e+00 0.000000e+00 2.286802e+04 # SC2-CA47 type=non-native eps=0.002390 sigma=3.817121
pair_coeff 3 91 0.000000e+00 0.000000e+00 1.721862e+03 # SC2-SC47 type=non-native eps=0.002390 sigma=3.077042
pair_coeff 3 92 0.000000e+00 0.000000e+00 2.286802e+04 # SC2-CA48 type=non-native eps=0.002390 sigma=3.817121
pair_coeff 3 93 0.000000e+00 0.000000e+00 2.286802e+04 # SC2-CA49 type=non-native eps=0.002390 sigma=3.817121
pair_coeff 3 94 0.000000e+00 0.000000e+00 1.268711e+04 # SC2-SC49 type=non-native eps=0.002390 sigma=3.634241
pair_coeff 3 95 0.000000e+00 0.000000e+00 2.286802e+04 # SC2-CA50 type=non-native eps=0.002390 sigma=3.817121
pair_coeff 3 96 0.000000e+00 0.000000e+00 2.286802e+04 # SC2-SC50 type=non-native eps=0.002390 sigma=3.817121
pair_coeff 3 97 0.000000e+00 0.000000e+00 2.286802e+04 # SC2-CA51 type=non-native eps=0.002390 sigma=3.817121
pair_coeff 3 98 0.000000e+00 0.000000e+00 1.058342e+05 # SC2-SC51 type=non-native eps=0.002390 sigma=4.336963
pair_coeff 3 99 0.000000e+00 0.000000e+00 2.286802e+04 # SC2-CA52 type=non-native eps=0.002390 sigma=3.817121
pair_coeff 3 100 0.000000e+00 0.000000e+00 7.782318e+04 # SC2-SC52 type=non-native eps=0.002390 sigma=4.227263
pair_coeff 3 101 0.000000e+00 0.000000e+00 2.286802e+04 # SC2-CA53 type=non-native eps=0.002390 sigma=3.817121
pair_coeff 3 102 0.000000e+00 0.000000e+00 2.286802e+04 # SC2-SC53 type=non-native eps=0.002390 sigma=3.817121
pair_coeff 3 103 0.000000e+00 0.000000e+00 2.286802e+04 # SC2-CA54 type=non-native eps=0.002390 sigma=3.817121
pair_coeff 3 104 0.000000e+00 0.000000e+00 2.286802e+04 # SC2-SC54 type=non-native eps=0.002390 sigma=3.817121
pair_coeff 3 105 0.000000e+00 0.000000e+00 2.286802e+04 # SC2-CA55 type=non-native eps=0.002390 sigma=3.817121
pair_coeff 3 106 0.000000e+00 0.000000e+00 1.268711e+04 # SC2-SC55 type=non-native eps=0.002390 sigma=3.634241
pair_coeff 3 107 0.000000e+00 0.000000e+00 2.286802e+04 # SC2-CA56 type=non-native eps=0.002390 sigma=3.817121
pair_coeff 3 108 0.000000e+00 0.000000e+00 3.680656e+04 # SC2-SC56 type=non-native eps=0.002390 sigma=3.971555
pair_coeff 3 109 0.000000e+00 0.000000e+00 2.286802e+04 # SC2-CA57 type=non-native eps=0.002390 sigma=3.817121
pair_coeff 3 110 0.000000e+00 0.000000e+00 2.286802e+04 # SC2-SC57 type=non-native eps=0.002390 sigma=3.817121
pair_coeff 3 111 0.000000e+00 0.000000e+00 2.286802e+04 # SC2-CA58 type=non-native eps=0.002390 sigma=3.817121
pair_coeff 3 112 0.000000e+00 0.000000e+00 2.286802e+04 # SC2-CA59 type=non-native eps=0.002390 sigma=3.817121
pair_coeff 3 113 0.000000e+00 0.000000e+00 7.782318e+04 # SC2-SC59 type=non-native eps=0.002390 sigma=4.227263
pair_coeff 3 114 0.000000e+00 0.000000e+00 2.286802e+04 # SC2-CA60 type=non-native eps=0.002390 sigma=3.817121
pair_coeff 3 115 0.000000e+00 0.000000e+00 1.268711e+04 # SC2-SC60 type=non-native eps=0.002390 sigma=3.634241
pair_coeff 3 116 0.000000e+00 0.000000e+00 2.286802e+04 # SC2-CA61 type=non-native eps=0.002390 sigma=3.817121
pair_coeff 3 117 0.000000e+00 0.000000e+00 1.268711e+04 # SC2-SC61 type=non-native eps=0.002390 sigma=3.634241
pair_coeff 3 118 0.000000e+00 0.000000e+00 2.286802e+04 # SC2-CA62 type=non-native eps=0.002390 sigma=3.817121
pair_coeff 3 119 0.000000e+00 0.000000e+00 5.795236e+03 # SC2-SC62 type=non-native eps=0.002390 sigma=3.404522
pair_coeff 3 120 0.000000e+00 0.000000e+00 2.286802e+04 # SC2-CA63 type=non-native eps=0.002390 sigma=3.817121
pair_coeff 3 121 0.000000e+00 0.000000e+00 1.268711e+04 # SC2-SC63 type=non-native eps=0.002390 sigma=3.634241
pair_coeff 3 122 0.000000e+00 0.000000e+00 2.286802e+04 # SC2-CA64 type=non-native eps=0.002390 sigma=3.817121
pair_coeff 3 123 0.000000e+00 0.000000e+00 3.680656e+04 # SC2-SC64 type=non-native eps=0.002390 sigma=3.971555
pair_coeff 3 124 0.000000e+00 0.000000e+00 2.286802e+04 # SC2-CA65 type=non-native eps=0.002390 sigma=3.817121
pair_coeff 3 125 0.000000e+00 0.000000e+00 1.268711e+04 # SC2-SC65 type=non-native eps=0.002390 sigma=3.634241
pair_coeff 3 126 0.000000e+00 0.000000e+00 2.286802e+04 # SC2-CA66 type=non-native eps=0.002390 sigma=3.817121
pair_coeff 3 127 0.000000e+00 0.000000e+00 5.496954e+04 # SC2-SC66 type=non-native eps=0.002390 sigma=4.106549
pair_coeff 3 128 0.000000e+00 0.000000e+00 2.286802e+04 # SC2-CA67 type=non-native eps=0.002390 sigma=3.817121
pair_coeff 3 129 0.000000e+00 0.000000e+00 2.286802e+04 # SC2-SC67 type=non-native eps=0.002390 sigma=3.817121
pair_coeff 3 130 0.000000e+00 0.000000e+00 2.286802e+04 # SC2-CA68 type=non-native eps=0.002390 sigma=3.817121
pair_coeff 3 131 0.000000e+00 0.000000e+00 2.286802e+04 # SC2-SC68 type=non-native eps=0.002390 sigma=3.817121
pair_coeff 3 132 0.000000e+00 0.000000e+00 2.286802e+04 # SC2-CA69 type=non-native eps=0.002390 sigma=3.817121
pair_coeff 3 133 0.000000e+00 0.000000e+00 2.286802e+04 # SC2-SC69 type=non-native eps=0.002390 sigma=3.817121
pair_coeff 3 134 0.000000e+00 0.000000e+00 2.286802e+04 # SC2-CA70 type=non-native eps=0.002390 sigma=3.817121
pair_coeff 3 135 0.000000e+00 0.000000e+00 5.795236e+03 # SC2-SC70 type=non-native eps=0.002390 sigma=3.404522
pair_coeff 3 136 0.000000e+00 0.000000e+00 2.286802e+04 # SC2-CA71 type=non-native eps=0.002390 sigma=3.817121
pair_coeff 3 137 0.000000e+00 0.000000e+00 1.268711e+04 # SC2-SC71 type=non-native eps=0.002390 sigma=3.634241
pair_coeff 3 138 0.000000e+00 0.000000e+00 2.286802e+04 # SC2-CA72 type=non-native eps=0.002390 sigma=3.817121
pair_coeff 3 139 0.000000e+00 0.000000e+00 7.782318e+04 # SC2-SC72 type=non-native eps=0.002390 sigma=4.227263
pair_coeff 3 140 0.000000e+00 0.000000e+00 2.286802e+04 # SC2-CA73 type=non-native eps=0.002390 sigma=3.817121
pair_coeff 3 141 0.000000e+00 0.000000e+00 5.496954e+04 # SC2-SC73 type=non-native eps=0.002390 sigma=4.106549
pair_coeff 3 142 0.000000e+00 0.000000e+00 2.286802e+04 # SC2-CA74 type=non-native eps=0.002390 sigma=3.817121
pair_coeff 3 143 0.000000e+00 0.000000e+00 2.286802e+04 # SC2-SC74 type=non-native eps=0.002390 sigma=3.817121
pair_coeff 3 144 0.000000e+00 0.000000e+00 2.286802e+04 # SC2-CA75 type=non-native eps=0.002390 sigma=3.817121
pair_coeff 3 145 0.000000e+00 0.000000e+00 3.680656e+04 # SC2-SC75 type=non-native eps=0.002390 sigma=3.971555
pair_coeff 3 146 0.000000e+00 0.000000e+00 2.286802e+04 # SC2-CA76 type=non-native eps=0.002390 sigma=3.817121
pair_coeff 3 147 0.000000e+00 0.000000e+00 1.268711e+04 # SC2-SC76 type=non-native eps=0.002390 sigma=3.634241
pair_coeff 3 148 0.000000e+00 0.000000e+00 2.286802e+04 # SC2-CA77 type=non-native eps=0.002390 sigma=3.817121
pair_coeff 3 149 0.000000e+00 0.000000e+00 5.496954e+04 # SC2-SC77 type=non-native eps=0.002390 sigma=4.106549
pair_coeff 3 150 0.000000e+00 0.000000e+00 2.286802e+04 # SC2-CA78 type=non-native eps=0.002390 sigma=3.817121
pair_coeff 3 151 0.000000e+00 0.000000e+00 2.286802e+04 # SC2-SC78 type=non-native eps=0.002390 sigma=3.817121
pair_coeff 3 152 0.000000e+00 0.000000e+00 2.286802e+04 # SC2-CA79 type=non-native eps=0.002390 sigma=3.817121
pair_coeff 3 153 0.000000e+00 0.000000e+00 3.680656e+04 # SC2-SC79 type=non-native eps=0.002390 sigma=3.971555
pair_coeff 3 154 0.000000e+00 0.000000e+00 2.286802e+04 # SC2-CA80 type=non-native eps=0.002390 sigma=3.817121
pair_coeff 3 155 0.000000e+00 0.000000e+00 7.782318e+04 # SC2-SC80 type=non-native eps=0.002390 sigma=4.227263
pair_coeff 3 156 0.000000e+00 0.000000e+00 2.286802e+04 # SC2-CA81 type=non-native eps=0.002390 sigma=3.817121
pair_coeff 3 157 0.000000e+00 0.000000e+00 3.680656e+04 # SC2-SC81 type=non-native eps=0.002390 sigma=3.971555
pair_coeff 3 158 0.000000e+00 0.000000e+00 2.286802e+04 # SC2-CA82 type=non-native eps=0.002390 sigma=3.817121
pair_coeff 3 159 0.000000e+00 0.000000e+00 1.721862e+03 # SC2-SC82 type=non-native eps=0.002390 sigma=3.077042
pair_coeff 3 160 0.000000e+00 0.000000e+00 2.286802e+04 # SC2-CA83 type=non-native eps=0.002390 sigma=3.817121
pair_coeff 3 161 0.000000e+00 0.000000e+00 7.782318e+04 # SC2-SC83 type=non-native eps=0.002390 sigma=4.227263
pair_coeff 3 162 0.000000e+00 0.000000e+00 2.286802e+04 # SC2-CA84 type=non-native eps=0.002390 sigma=3.817121
pair_coeff 3 163 0.000000e+00 0.000000e+00 5.795236e+03 # SC2-SC84 type=non-native eps=0.002390 sigma=3.404522
pair_coeff 3 164 0.000000e+00 0.000000e+00 2.286802e+04 # SC2-CA85 type=non-native eps=0.002390 sigma=3.817121
pair_coeff 3 165 0.000000e+00 0.000000e+00 5.795236e+03 # SC2-SC85 type=non-native eps=0.002390 sigma=3.404522
pair_coeff 3 166 0.000000e+00 0.000000e+00 2.286802e+04 # SC2-CA86 type=non-native eps=0.002390 sigma=3.817121
pair_coeff 3 167 0.000000e+00 0.000000e+00 7.782318e+04 # SC2-SC86 type=non-native eps=0.002390 sigma=4.227263
pair_coeff 3 168 0.000000e+00 0.000000e+00 2.286802e+04 # SC2-CA87 type=non-native eps=0.002390 sigma=3.817121
pair_coeff 3 169 0.000000e+00 0.000000e+00 3.680656e+04 # SC2-SC87 type=non-native eps=0.002390 sigma=3.971555
pair_coeff 3 170 0.000000e+00 0.000000e+00 2.286802e+04 # SC2-CA88 type=non-native eps=0.002390 sigma=3.817121
pair_coeff 3 171 0.000000e+00 0.000000e+00 2.286802e+04 # SC2-SC88 type=non-native eps=0.002390 sigma=3.817121
pair_coeff 3 172 0.000000e+00 0.000000e+00 2.286802e+04 # SC2-CA89 type=non-native eps=0.002390 sigma=3.817121
pair_coeff 3 173 0.000000e+00 0.000000e+00 1.058342e+05 # SC2-SC89 type=non-native eps=0.002390 sigma=4.336963
pair_coeff 3 174 0.000000e+00 0.000000e+00 2.286802e+04 # SC2-CA90 type=non-native eps=0.002390 sigma=3.817121
pair_coeff 3 175 0.000000e+00 0.000000e+00 1.721862e+03 # SC2-SC90 type=non-native eps=0.002390 sigma=3.077042
pair_coeff 3 176 0.000000e+00 0.000000e+00 2.286802e+04 # SC2-CA91 type=non-native eps=0.002390 sigma=3.817121
pair_coeff 3 177 0.000000e+00 0.000000e+00 1.268711e+04 # SC2-SC91 type=non-native eps=0.002390 sigma=3.634241
pair_coeff 3 178 0.000000e+00 0.000000e+00 2.286802e+04 # SC2-CA92 type=non-native eps=0.002390 sigma=3.817121
pair_coeff 3 179 0.000000e+00 0.000000e+00 1.268711e+04 # SC2-SC92 type=non-native eps=0.002390 sigma=3.634241
pair_coeff 3 180 0.000000e+00 0.000000e+00 2.286802e+04 # SC2-CA93 type=non-native eps=0.002390 sigma=3.817121
pair_coeff 3 181 0.000000e+00 0.000000e+00 1.792032e+05 # SC2-SC93 type=non-native eps=0.002390 sigma=4.531538
pair_coeff 3 182 0.000000e+00 0.000000e+00 2.286802e+04 # SC2-CA94 type=non-native eps=0.002390 sigma=3.817121
pair_coeff 3 183 0.000000e+00 0.000000e+00 3.680656e+04 # SC2-SC94 type=non-native eps=0.002390 sigma=3.971555
pair_coeff 3 184 0.000000e+00 0.000000e+00 2.286802e+04 # SC2-CA95 type=non-native eps=0.002390 sigma=3.817121
pair_coeff 3 185 0.000000e+00 0.000000e+00 2.286802e+04 # SC2-CA96 type=non-native eps=0.002390 sigma=3.817121
pair_coeff 3 186 0.000000e+00 0.000000e+00 1.268711e+04 # SC2-SC96 type=non-native eps=0.002390 sigma=3.634241
pair_coeff 3 187 0.000000e+00 0.000000e+00 2.286802e+04 # SC2-CA97 type=non-native eps=0.002390 sigma=3.817121
pair_coeff 3 188 0.000000e+00 0.000000e+00 2.286802e+04 # SC2-SC97 type=non-native eps=0.002390 sigma=3.817121
pair_coeff 3 189 0.000000e+00 0.000000e+00 2.286802e+04 # SC2-CA98 type=non-native eps=0.002390 sigma=3.817121
pair_coeff 3 190 0.000000e+00 0.000000e+00 1.268711e+04 # SC2-SC98 type=non-native eps=0.002390 sigma=3.634241
pair_coeff 3 191 0.000000e+00 0.000000e+00 2.286802e+04 # SC2-CA99 type=non-native eps=0.002390 sigma=3.817121
pair_coeff 3 192 0.000000e+00 0.000000e+00 2.286802e+04 # SC2-SC99 type=non-native eps=0.002390 sigma=3.817121
pair_coeff 3 193 0.000000e+00 0.000000e+00 2.286802e+04 # SC2-CA100 type=non-native eps=0.002390 sigma=3.817121
pair_coeff 3 194 0.000000e+00 0.000000e+00 5.795236e+03 # SC2-SC100 type=non-native eps=0.002390 sigma=3.404522
pair_coeff 3 195 0.000000e+00 0.000000e+00 2.286802e+04 # SC2-CA101 type=non-native eps=0.002390 sigma=3.817121
pair_coeff 3 196 0.000000e+00 0.000000e+00 3.680656e+04 # SC2-SC101 type=non-native eps=0.002390 sigma=3.971555
pair_coeff 3 197 0.000000e+00 0.000000e+00 2.286802e+04 # SC2-CA102 type=non-native eps=0.002390 sigma=3.817121
pair_coeff 3 198 0.000000e+00 0.000000e+00 5.795236e+03 # SC2-SC102 type=non-native eps=0.002390 sigma=3.404522
pair_coeff 3 199 0.000000e+00 0.000000e+00 2.286802e+04 # SC2-CA103 type=non-native eps=0.002390 sigma=3.817121
pair_coeff 3 200 0.000000e+00 0.000000e+00 1.268711e+04 # SC2-SC103 type=non-native eps=0.002390 sigma=3.634241
pair_coeff 3 201 0.000000e+00 0.000000e+00 2.286802e+04 # SC2-CA104 type=non-native eps=0.002390 sigma=3.817121
pair_coeff 3 202 0.000000e+00 0.000000e+00 5.795236e+03 # SC2-SC104 type=non-native eps=0.002390 sigma=3.404522
pair_coeff 3 203 0.000000e+00 0.000000e+00 2.286802e+04 # SC2-CA105 type=non-native eps=0.002390 sigma=3.817121
pair_coeff 3 204 0.000000e+00 0.000000e+00 3.680656e+04 # SC2-SC105 type=non-native eps=0.002390 sigma=3.971555
pair_coeff 3 205 0.000000e+00 0.000000e+00 2.286802e+04 # SC2-CA106 type=non-native eps=0.002390 sigma=3.817121
pair_coeff 3 206 0.000000e+00 0.000000e+00 2.286802e+04 # SC2-SC106 type=non-native eps=0.002390 sigma=3.817121
pair_coeff 3 207 0.000000e+00 0.000000e+00 2.286802e+04 # SC2-CA107 type=non-native eps=0.002390 sigma=3.817121
pair_coeff 3 208 0.000000e+00 0.000000e+00 5.795236e+03 # SC2-SC107 type=non-native eps=0.002390 sigma=3.404522
pair_coeff 4 4 0.000000e+00 0.000000e+00 4.009755e+04 # CA3-CA3 type=non-native eps=0.002390 sigma=4.000000
pair_coeff 4 5 0.000000e+00 0.000000e+00 4.009755e+04 # CA3-SC3 type=non-native eps=0.002390 sigma=4.000000
pair_coeff 4 6 0.000000e+00 0.000000e+00 4.009755e+04 # CA3-CA4 type=non-native eps=0.002390 sigma=4.000000
pair_coeff 4 7 0.000000e+00 0.000000e+00 4.009755e+04 # CA3-SC4 type=non-native eps=0.002390 sigma=4.000000
pair_coeff 4 8 0.000000e+00 0.000000e+00 4.009755e+04 # CA3-CA5 type=non-native eps=0.002390 sigma=4.000000
pair_coeff 4 9 0.000000e+00 0.000000e+00 3.442571e+03 # CA3-SC5 type=non-native eps=0.002390 sigma=3.259921
pair_coeff 4 10 0.000000e+00 0.000000e+00 4.009755e+04 # CA3-CA6 type=non-native eps=0.002390 sigma=4.000000
pair_coeff 4 11 0.000000e+00 0.000000e+00 1.085818e+04 # CA3-SC6 type=non-native eps=0.002390 sigma=3.587401
pair_coeff 4 12 0.000000e+00 0.000000e+00 4.009755e+04 # CA3-CA7 type=non-native eps=0.002390 sigma=4.000000
pair_coeff 4 13 0.000000e+00 0.000000e+00 2.286802e+04 # CA3-SC7 type=non-native eps=0.002390 sigma=3.817121
pair_coeff 4 14 0.000000e+00 0.000000e+00 4.009755e+04 # CA3-CA8 type=non-native eps=0.002390 sigma=4.000000
pair_coeff 4 15 0.000000e+00 0.000000e+00 6.317440e+04 # CA3-SC8 type=non-native eps=0.002390 sigma=4.154435
pair_coeff 4 16 0.000000e+00 0.000000e+00 4.009755e+04 # CA3-CA9 type=non-native eps=0.002390 sigma=4.000000
pair_coeff 4 17 0.000000e+00 0.000000e+00 6.317440e+04 # CA3-SC9 type=non-native eps=0.002390 sigma=4.154435
pair_coeff 4 18 0.000000e+00 0.000000e+00 4.009755e+04 # CA3-CA10 type=non-native eps=0.002390 sigma=4.000000
pair_coeff 4 19 0.000000e+00 0.000000e+00 6.317440e+04 # CA3-SC10 type=non-native eps=0.002390 sigma=4.154435
pair_coeff 4 20 0.000000e+00 0.000000e+00 4.009755e+04 # CA3-CA11 type=non-native eps=0.002390 sigma=4.000000
pair_coeff 4 21 0.000000e+00 0.000000e+00 4.009755e+04 # CA3-CA12 type=non-native eps=0.002390 sigma=4.000000
pair_coeff 4 22 0.000000e+00 0.000000e+00 2.286802e+04 # CA3-SC12 type=non-native eps=0.002390 sigma=3.817121
pair_coeff 4 23 0.000000e+00 0.000000e+00 4.009755e+04 # CA3-CA13 type=non-native eps=0.002390 sigma=4.000000
pair_coeff 4 24 0.000000e+00 0.000000e+00 1.293687e+05 # CA3-SC13 type=non-native eps=0.002390 sigma=4.410142
pair_coeff 4 25 0.000000e+00 0.000000e+00 4.009755e+04 # CA3-CA14 type=non-native eps=0.002390 sigma=4.000000
pair_coeff 4 26 0.000000e+00 0.000000e+00 1.293687e+05 # CA3-SC14 type=non-native eps=0.002390 sigma=4.410142
pair_coeff 4 27 0.000000e+00 0.000000e+00 4.009755e+04 # CA3-CA15 type=non-native eps=0.002390 sigma=4.000000
pair_coeff 4 28 0.000000e+00 0.000000e+00 3.442571e+03 # CA3-SC15 type=non-native eps=0.002390 sigma=3.259921
pair_coeff 4 29 0.000000e+00 0.000000e+00 4.009755e+04 # CA3-CA16 type=non-native eps=0.002390 sigma=4.000000
pair_coeff 4 30 0.000000e+00 0.000000e+00 4.009755e+04 # CA3-SC16 type=non-native eps=0.002390 sigma=4.000000
pair_coeff 4 31 0.000000e+00 0.000000e+00 4.009755e+04 # CA3-CA17 type=non-native eps=0.002390 sigma=4.000000
pair_coeff 4 32 0.000000e+00 0.000000e+00 4.009755e+04 # CA3-SC17 type=non-native eps=0.002390 sigma=4.000000
pair_coeff 4 33 0.000000e+00 0.000000e+00 4.009755e+04 # CA3-CA18 type=non-native eps=0.002390 sigma=4.000000
pair_coeff 4 34 0.000000e+00 0.000000e+00 1.293687e+05 # CA3-SC18 type=non-native eps=0.002390 sigma=4.410142
pair_coeff 4 35 0.000000e+00 0.000000e+00 4.009755e+04 # CA3-CA19 type=non-native eps=0.002390 sigma=4.000000
pair_coeff 4 36 0.000000e+00 0.000000e+00 3.442571e+03 # CA3-SC19 type=non-native eps=0.002390 sigma=3.259921
pair_coeff 4 37 0.000000e+00 0.000000e+00 4.009755e+04 # CA3-CA20 type=non-native eps=0.002390 sigma=4.000000
pair_coeff 4 38 0.000000e+00 0.000000e+00 2.286802e+04 # CA3-SC20 type=non-native eps=0.002390 sigma=3.817121
pair_coeff 4 39 0.000000e+00 0.000000e+00 4.009755e+04 # CA3-CA21 type=non-native eps=0.002390 sigma=4.000000
pair_coeff 4 40 0.000000e+00 0.000000e+00 4.009755e+04 # CA3-CA22 type=non-native eps=0.002390 sigma=4.000000
pair_coeff 4 41 0.000000e+00 0.000000e+00 6.317440e+04 # CA3-SC22 type=non-native eps=0.002390 sigma=4.154435
pair_coeff 4 42 0.000000e+00 0.000000e+00 4.009755e+04 # CA3-CA23 type=non-native eps=0.002390 sigma=4.000000
pair_coeff 4 43 0.000000e+00 0.000000e+00 1.737309e+05 # CA3-SC23 type=non-native eps=0.002390 sigma=4.519842
pair_coeff 4 44 0.000000e+00 0.000000e+00 4.009755e+04 # CA3-CA24 type=non-native eps=0.002390 sigma=4.000000
pair_coeff 4 45 0.000000e+00 0.000000e+00 4.009755e+04 # CA3-SC24 type=non-native eps=0.002390 sigma=4.000000
pair_coeff 4 46 0.000000e+00 0.000000e+00 4.009755e+04 # CA3-CA25 type=non-native eps=0.002390 sigma=4.000000
pair_coeff 4 47 0.000000e+00 0.000000e+00 6.317440e+04 # CA3-SC25 type=non-native eps=0.002390 sigma=4.154435
pair_coeff 4 48 0.000000e+00 0.000000e+00 4.009755e+04 # CA3-CA26 type=non-native eps=0.002390 sigma=4.000000
pair_coeff 4 49 0.000000e+00 0.000000e+00 3.442571e+03 # CA3-SC26 type=non-native eps=0.002390 sigma=3.259921
pair_coeff 4 50 0.000000e+00 0.000000e+00 4.009755e+04 # CA3-CA27 type=non-native eps=0.002390 sigma=4.000000
pair_coeff 4 51 0.000000e+00 0.000000e+00 1.085818e+04 # CA3-SC27 type=non-native eps=0.002390 sigma=3.587401
pair_coeff 4 52 0.000000e+00 0.000000e+00 4.009755e+04 # CA3-CA28 type=non-native eps=0.002390 sigma=4.000000
pair_coeff 4 53 0.000000e+00 0.000000e+00 4.009755e+04 # CA3-SC28 type=non-native eps=0.002390 sigma=4.000000
pair_coeff 4 54 0.000000e+00 0.000000e+00 4.009755e+04 # CA3-CA29 type=non-native eps=0.002390 sigma=4.000000
pair_coeff 4 55 0.000000e+00 0.000000e+00 4.009755e+04 # CA3-SC29 type=non-native eps=0.002390 sigma=4.000000
pair_coeff 4 56 0.000000e+00 0.000000e+00 4.009755e+04 # CA3-CA30 type=non-native eps=0.002390 sigma=4.000000
pair_coeff 4 57 0.000000e+00 0.000000e+00 4.009755e+04 # CA3-SC30 type=non-native eps=0.002390 sigma=4.000000
pair_coeff 4 58 0.000000e+00 0.000000e+00 4.009755e+04 # CA3-CA31 type=non-native eps=0.002390 sigma=4.000000
pair_coeff 4 59 0.000000e+00 0.000000e+00 1.737309e+05 # CA3-SC31 type=non-native eps=0.002390 sigma=4.519842
pair_coeff 4 60 0.000000e+00 0.000000e+00 4.009755e+04 # CA3-CA32 type=non-native eps=0.002390 sigma=4.000000
pair_coeff 4 61 0.000000e+00 0.000000e+00 9.272377e+04 # CA3-SC32 type=non-native eps=0.002390 sigma=4.289428
pair_coeff 4 62 0.000000e+00 0.000000e+00 4.009755e+04 # CA3-CA33 type=non-native eps=0.002390 sigma=4.000000
pair_coeff 4 63 0.000000e+00 0.000000e+00 1.085818e+04 # CA3-SC33 type=non-native eps=0.002390 sigma=3.587401
pair_coeff 4 64 0.000000e+00 0.000000e+00 4.009755e+04 # CA3-CA34 type=non-native eps=0.002390 sigma=4.000000
pair_coeff 4 65 0.000000e+00 0.000000e+00 1.293687e+05 # CA3-SC34 type=non-native eps=0.002390 sigma=4.410142
pair_coeff 4 66 0.000000e+00 0.000000e+00 4.009755e+04 # CA3-CA35 type=non-native eps=0.002390 sigma=4.000000
pair_coeff 4 67 0.000000e+00 0.000000e+00 3.442571e+03 # CA3-SC35 type=non-native eps=0.002390 sigma=3.259921
pair_coeff 4 68 0.000000e+00 0.000000e+00 4.009755e+04 # CA3-CA36 type=non-native eps=0.002390 sigma=4.000000
pair_coeff 4 69 0.000000e+00 0.000000e+00 4.009755e+04 # CA3-SC36 type=non-native eps=0.002390 sigma=4.000000
pair_coeff 4 70 0.000000e+00 0.000000e+00 4.009755e+04 # CA3-CA37 type=non-native eps=0.002390 sigma=4.000000
pair_coeff 4 71 0.000000e+00 0.000000e+00 6.317440e+04 # CA3-SC37 type=non-native eps=0.002390 sigma=4.154435
pair_coeff 4 72 0.000000e+00 0.000000e+00 4.009755e+04 # CA3-CA38 type=non-native eps=0.002390 sigma=4.000000
pair_coeff 4 73 0.000000e+00 0.000000e+00 2.286802e+04 # CA3-SC38 type=non-native eps=0.002390 sigma=3.817121
pair_coeff 4 74 0.000000e+00 0.000000e+00 4.009755e+04 # CA3-CA39 type=non-native eps=0.002390 sigma=4.000000
pair_coeff 4 75 0.000000e+00 0.000000e+00 2.286802e+04 # CA3-SC39 type=non-native eps=0.002390 sigma=3.817121
pair_coeff 4 76 0.000000e+00 0.000000e+00 4.009755e+04 # CA3-CA40 type=non-native eps=0.002390 sigma=4.000000
pair_coeff 4 77 0.000000e+00 0.000000e+00 1.293687e+05 # CA3-SC40 type=non-native eps=0.002390 sigma=4.410142
pair_coeff 4 78 0.000000e+00 0.000000e+00 4.009755e+04 # CA3-CA41 type=non-native eps=0.002390 sigma=4.000000
pair_coeff 4 79 0.000000e+00 0.000000e+00 3.442571e+03 # CA3-SC41 type=non-native eps=0.002390 sigma=3.259921
pair_coeff 4 80 0.000000e+00 0.000000e+00 4.009755e+04 # CA3-CA42 type=non-native eps=0.002390 sigma=4.000000
pair_coeff 4 81 0.000000e+00 0.000000e+00 1.293687e+05 # CA3-SC42 type=non-native eps=0.002390 sigma=4.410142
pair_coeff 4 82 0.000000e+00 0.000000e+00 4.009755e+04 # CA3-CA43 type=non-native eps=0.002390 sigma=4.000000
pair_coeff 4 83 0.000000e+00 0.000000e+00 6.317440e+04 # CA3-SC43 type=non-native eps=0.002390 sigma=4.154435
pair_coeff 4 84 0.000000e+00 0.000000e+00 4.009755e+04 # CA3-CA44 type=non-native eps=0.002390 sigma=4.000000
pair_coeff 4 85 0.000000e+00 0.000000e+00 6.317440e+04 # CA3-SC44 type=non-native eps=0.002390 sigma=4.154435
pair_coeff 4 86 0.000000e+00 0.000000e+00 4.009755e+04 # CA3-CA45 type=non-native eps=0.002390 sigma=4.000000
pair_coeff 4 87 0.000000e+00 0.000000e+00 4.009755e+04 # CA3-SC45 type=non-native eps=0.002390 sigma=4.000000
pair_coeff 4 88 0.000000e+00 0.000000e+00 4.009755e+04 # CA3-CA46 type=non-native eps=0.002390 sigma=4.000000
pair_coeff 4 89 0.000000e+00 0.000000e+00 2.286802e+04 # CA3-SC46 type=non-native eps=0.002390 sigma=3.817121
pair_coeff 4 90 0.000000e+00 0.000000e+00 4.009755e+04 # CA3-CA47 type=non-native eps=0.002390 sigma=4.000000
pair_coeff 4 91 0.000000e+00 0.000000e+00 3.442571e+03 # CA3-SC47 type=non-native eps=0.002390 sigma=3.259921
pair_coeff 4 92 0.000000e+00 0.000000e+00 4.009755e+04 # CA3-CA48 type=non-native eps=0.002390 sigma=4.000000
pair_coeff 4 93 0.000000e+00 0.000000e+00 4.009755e+04 # CA3-CA49 type=non-native eps=0.002390 sigma=4.000000
[...]
 4788000    70.709557    36.964646   -8.4380393    13.564272    17.245452    14.592961 
 4789000    78.633627    36.614258   -8.9463133    14.214284    17.976864    13.369423 
 4790000    74.178006    41.361267   -8.9007714    16.606469    20.000176    13.655393 
 4791000    71.300647    40.834151   -8.5285143    13.823502    19.917326    15.621837 
 4792000    73.291435    43.212355   -8.2835502     16.73195    19.439743    15.324212 
 4793000    75.003747    39.555586   -8.3233947    15.982586    17.784588    14.111808 
 4794000    76.926814    42.738272   -8.1814998    17.403636    16.869455    16.646681 
 4795000    77.348635    42.294664   -7.1829554    14.947298     20.34871    14.181611 
 4796000    77.160161    40.426357   -8.4814816    16.380724    17.878238    14.648876 
 4797000    71.640924    46.985615    -7.986732     16.94072    19.734265    18.297363 
 4798000    77.775828    43.483397   -7.8616729     17.94111    17.913235    15.490725 
 4799000     78.88121    44.650721   -8.2404884     18.95463    18.797921    15.138658 
 4800000    83.912344    42.848373   -8.0244843    16.511537    17.901786    16.459535 
 4801000    72.065209    43.909807   -8.1068577    16.524121    20.439196    15.053347 
 4802000    78.802682    43.446543   -8.5714532    17.352346    19.329172    15.336477 
 4803000    72.687238    41.934635   -8.0834591    17.731555    18.918194    13.368346 
 4804000    71.269588    39.457301   -8.2992335    14.812148    18.564017     14.38037 
 4805000    68.940398    42.058537   -8.3378033    14.823898    19.373965    16.198479 
 4806000    73.352278    40.189015   -8.0135104    11.990678     20.93853    15.273317 
 4807000    78.679371    37.246143   -7.9663612    12.677718     17.68996    14.844827 
 4808000    78.892515    35.546756   -8.1618424    13.485912     15.31974    14.902946 
 4809000     72.17485    40.529387   -8.2642977    14.111716    19.963997    14.717972 
 4810000    73.266839     43.04261   -8.3018956    16.863005    17.927903    16.553598 
 4811000    78.199367    40.700678   -7.5484089    13.870987    19.106055    15.272044 
 4812000    82.075911    42.823702   -7.2834502    15.324415    20.669018    14.113719 
 4813000    71.604384    45.050197   -7.0161982    15.636829    17.867011    18.562555 
 4814000    70.379296    47.554605   -7.2483281    16.018072    20.022366    18.762495 
 4815000    76.172453    45.952669   -7.2001117    17.689812    19.022014    16.440955 
 4816000    80.933279    43.961192   -7.6475816    16.231615    21.029999     14.34716 
 4817000    80.671709    42.719102    -7.669144    17.464186    18.085017    14.839042 
 4818000    75.863077    44.657499   -7.8464652    17.122251    18.269301    17.112412 
 4819000    71.821688    43.107873   -8.3039863    16.328556    20.495133     14.58817 
 4820000    72.844284    42.370328   -7.4398105    14.478871    19.824557    15.506711 
 4821000    79.454752    37.969859   -8.2965527    14.668184    16.761361    14.836867 
 4822000    73.289901    42.546966   -7.3985499    15.534347    18.903291    15.507878 
 4823000    75.451967    43.956025    -7.582796    15.980587    19.757408    15.800826 
 4824000    73.552126    39.244921   -8.5304256    14.656127    18.509112    14.610107 
 4825000    81.919045    39.437087    -8.616392    16.175069    17.086383    14.792027 
 4826000    77.676967    44.796757   -7.7080758    16.059671    20.837368    15.607794 
 4827000    82.213807     44.06346   -8.3601781    13.729681    20.483998    18.209959 
 4828000    77.021698    46.542696   -7.4564859     17.41262    17.509161    19.077401 
 4829000    81.048335    39.632781   -7.6603091    13.200336    16.709597    17.383157 
 4830000     81.69735    44.732369   -7.8634115    16.543818    18.941335    17.110628 
 4831000     80.06507    46.519787   -7.8474942    17.776503    21.098592    15.492186 
 4832000    78.858065    46.003736   -7.5468868    15.803836    20.182199    17.564588 
 4833000    74.257244    45.750128   -8.1894457    17.349033    19.749037    16.841504 
 4834000    75.531229    42.579304   -7.8856965    17.042431    17.579259     15.84331 
 4835000    68.172809    41.653288    -7.203637    17.592825     16.70975    14.554351 
 4836000    76.981309    42.079902   -7.8628595    13.656422    19.993403    16.292937 
 4837000    74.493404    41.075612   -8.0543926    15.898519    17.712098    15.519388 
 4838000    73.061941    40.983224    -7.748012    15.637688    18.276952    14.816596 
 4839000    72.459662    43.672159   -7.1724101    15.407153    19.823182    15.614234 
 4840000    78.780613    37.092922   -8.5687503     14.18283    18.449645    13.029198 
 4841000    77.857623    40.164809   -8.2538515    14.931258    17.858777    15.628625 
 4842000     79.41991    46.950098   -8.1585077     17.66968    21.232576     16.20635 
 4843000    79.643156    40.064913   -8.4302655    15.350035    18.749466    14.395679 
 4844000     77.20767    42.843175   -8.2375178    15.741118    19.681218    15.658357 
 4845000    78.153491    45.146683   -8.5146429    17.719422    19.805411    16.136493 
 4846000    72.637057    44.072393      -8.0971    14.191229    20.567472    17.410793 
 4847000    74.719736    43.867347   -8.3703757    15.268362    19.119929    17.849432 
 4848000    82.256576    44.828083   -8.2963252    16.204783    20.541433    16.378192 
 4849000    78.589431    40.794014   -8.3731374    17.672679    14.311507    17.182965 
 4850000    80.579702    44.421199   -7.6042231    15.610935    18.541956    17.872532 
 4851000    82.330965    39.220736   -7.4678869    14.861113    16.913275    14.914234 
 4852000    77.430011     45.65815   -7.9852075    17.769102    20.717016    15.157239 
 4853000    81.151001    41.222201    -7.799072    16.572328     16.60879    15.840154 
 4854000    81.706896    43.982684   -7.1676747    16.352326    18.746137    16.051895 
 4855000     81.08283    45.618769   -7.4075093    17.943939    20.047129    15.035211 
 4856000    74.493163    42.528004   -6.0018443    16.015507    17.492274    15.022068 
 4857000     75.70975    43.030889   -7.7399861    15.010964    22.864858    12.895053 
 4858000    83.944396    43.007858   -8.2634435    15.895023     18.86389    16.512388 
 4859000    83.611837    44.319215   -8.7842162    14.922732     19.61961     18.56109 
 4860000    74.588065    46.041681   -8.3358456    15.789366    22.211784    16.376377 
 4861000    80.470535    44.549071   -7.5414587    15.627382    19.804005    16.659143 
 4862000    75.438534    44.133782   -7.5771634    17.406195    17.620415    16.684334 
 4863000    76.339725     48.28203   -7.3764587    17.044886    20.566188    18.047414 
 4864000    78.896114     47.18225   -7.8407536    16.403612     20.21883    18.400562 
 4865000    74.707855    45.538412   -7.7608574     14.99379    20.552375    17.753104 
 4866000    76.898413     43.39059   -7.5115437    15.854167    16.224598    18.823369 
 4867000    78.586653     43.43896   -7.2883551    14.320482    18.232868    18.173965 
 4868000    78.605032    42.789965   -8.1968496    13.004738    19.194991    18.787085 
 4869000    72.313936    44.890071   -7.9436427    17.391518    18.263474    17.178721 
 4870000    67.812191     41.70942   -7.7205146    14.285327     16.87872    18.265887 
 4871000    72.664697    39.386066   -8.1167917     13.17021    18.698328     15.63432 
 4872000    73.894155    41.871249   -8.4954543    13.723084    20.205963    16.437656 
 4873000     77.99631    46.180403   -8.2392691    15.648865     21.59769    17.173117 
 4874000    76.870685    46.734273   -8.3167766    17.681844     18.63792    18.731286 
 4875000     87.32438    48.524677   -7.7343908    18.500323    20.300926     17.45782 
 4876000    71.597373    49.945062   -6.9365249    18.088712    21.285654    17.507221 
 4877000    76.148229    43.843051   -7.2642105    18.401275    17.211441    15.494546 
 4878000    82.184888    43.995554   -7.8476483    17.106492     16.19554     18.54117 
 4879000    76.778832    43.798898   -8.2938544    15.394715    17.243942    19.454096 
 4880000    71.485086    46.926208   -7.7057539    16.046971    20.490715    18.094276 
 4881000    85.507385    45.388861    -8.912338    15.330268    20.136561     18.83437 
 4882000      80.3835    45.840825   -8.6832148    14.424624    20.244549    19.854867 
 4883000    81.385137    46.291161   -8.3790322    15.810411    19.284413     19.57537 
 4884000    80.403244     41.83574   -8.6147292    14.735106    18.372366    17.342998 
 4885000    74.406977    44.958652   -8.1364817    17.923474    19.086422    16.085238 
 4886000    78.113771    40.735536   -7.6073804    14.607528    16.716921    17.018468 
 4887000    81.019949    43.652241   -7.9417171    15.386335     20.66459    15.543033 
 4888000    76.850339    39.098784   -8.6358913    13.566482    17.667439    16.500754 
 4889000    68.732882     39.26262   -8.6319564    13.031253    18.598866    16.264456 
 4890000    73.730765    43.636335   -8.2421765    16.204371    18.766854    16.907286 
 4891000     75.24357     44.99434    -8.164789    15.354702    20.148329    17.656099 
 4892000    74.889816    45.846984   -7.9769138     15.71545     19.47787    18.630578 
 4893000    80.559874     46.67776   -8.2139999    16.122088    21.601731    17.167941 
 4894000    78.295299    45.217141   -7.4377484    16.347663    19.072299    17.234928 
 4895000    69.207014    43.537925   -6.7559521    15.653842    18.938318    15.701718 
 4896000    68.596502    41.887437   -7.0059204    14.700749    19.692984    14.499625 
 4897000    71.889022    41.126348   -8.3927244    15.793173    17.628041    16.097859 
 4898000     66.20675    47.185876   -8.2253544    15.337948    20.063835    20.009448 
 4899000    81.068279    49.044663   -7.9496469    16.538296    21.264846    19.191167 
 4900000    80.090908    45.674924   -7.9872518    16.454586    20.650128    16.557462 
 4901000    82.892899    42.809862   -8.1641809    15.171657     18.88528    16.917105 
 4902000    77.882802    42.526539   -8.0952637    13.579151    19.872194    17.170458 
 4903000    73.909973    48.027879   -8.5742541     14.36341    22.345917    19.892805 
 4904000    78.314773    40.602758   -8.0520726    14.618754    16.969613    17.066464 
 4905000    76.348953    44.614819   -8.4104222    13.892921    20.333883    18.798437 
 4906000    74.713913    44.655265     -8.41695    17.263893    18.234697    17.573625 
 4907000     77.40638    42.796922   -8.1048986    17.628336    16.029065    17.244419 
 4908000    80.109242    42.211888   -8.6960719    17.312909    18.276677    15.318375 
 4909000    79.262728    45.571132   -7.8050682    18.791986    16.179777    18.404437 
 4910000      80.4255     41.37434   -8.0125145    16.803454     16.05149    16.531911 
 4911000    75.513408    44.105538   -7.7429907    16.356119    20.242608    15.249802 
 4912000    81.043802     45.22096   -7.5817519    17.056357    19.535847    16.210508 
 4913000    72.092543    49.339788   -7.7409554    18.249317    21.531112    17.300314 
 4914000     81.63756    48.249366   -7.7843399    17.968332     19.16406    18.901313 
 4915000    80.375697     47.57397   -7.6882636    17.054178    18.840586    19.367469 
 4916000     78.38716    47.950536    -8.236692    16.319569    20.956828    18.910831 
 4917000    76.431686     49.05362   -7.9711252    18.436317    19.524521    19.063908 
 4918000    83.926658    45.517861   -7.6803686    16.684412    19.849026    16.664792 
 4919000     82.04101    46.922636   -7.4389444    17.002866    20.636702    16.722012 
 4920000     81.48166    45.641777   -7.8720709    17.151359    18.644252    17.718236 
 4921000    77.266684    44.775559   -8.4182088    16.943861    16.244535    20.005371 
 4922000    78.426122    46.818418   -8.4424212    16.015749    21.011843    18.233246 
 4923000    81.386825    45.204824   -8.5615334    15.883226    20.737312    17.145819 
 4924000    79.660839    40.829594   -8.7759491     17.92335     16.86237    14.819822 
 4925000    81.824914    43.491184   -8.0120169    17.449912    17.133393    16.919896 
 4926000    83.136799    40.360981   -7.6179727     17.31757    16.935607    13.725777 
 4927000    77.112882    36.265733   -8.0753914    14.601784    16.460587    13.278754 
 4928000    77.498097     42.42436   -8.3873567    17.975084    19.914748    12.921884 
 4929000    76.444705    42.565546   -8.4258119    17.513558    17.040229    16.437571 
 4930000    69.766078     40.74468   -8.0654265    14.710013    16.136872    17.963222 
 4931000    71.013423    39.134609    -7.812518    15.557908    16.407952    14.981267 
 4932000    78.526646    41.546536   -7.9794042    13.537648    19.924234    16.064058 
 4933000    78.934408    40.311207   -8.0316176    14.007298    18.149839    16.185688 
 4934000    79.498137    43.411429   -8.1972001     16.04565    19.685738    15.877241 
 4935000    81.862868    49.804006   -7.2180703    18.659881    21.190634    17.171561 
 4936000    91.443829    49.135066   -6.9153703    17.435389    21.764955    16.850093 
 4937000    84.019398    50.707551   -6.4029368    18.067388    20.304062    18.739037 
 4938000    81.011786    50.490035   -7.2417484    16.197048    20.340554    21.194181 
 4939000     73.26603    45.824185   -8.1271491    17.080565    20.136119    16.734651 
 4940000    73.880814    43.438055   -8.3896358     16.67772    19.596433    15.553537 
 4941000    80.807004    44.151551   -8.0602613    13.627526    23.708407     14.87588 
 4942000    72.271928    44.027487   -8.6263708    17.097859     19.22599    16.330008 
 4943000    73.789331    44.475038   -8.3039422    13.899388    22.005182     16.87441 
 4944000    76.633854    44.821085   -8.1567859    16.858174    19.041616    17.078081 
 4945000    81.386186    43.176914   -8.0636928    16.148766    19.656036    15.435804 
 4946000    78.104643    43.007072   -8.1154642    15.911558    18.158019     17.05296 
 4947000     76.60231    43.444262   -8.4698609    15.045363    20.901351    15.967408 
 4948000    75.563302    46.264189   -8.3310332    14.086533    22.985366    17.523324 
 4949000    79.551795    40.384427   -8.6680912    13.622031    21.186152    14.244335 
 4950000    75.042925    41.655085   -8.5656799    17.305161    17.902959    15.012644 
 4951000    77.687192    40.754671   -8.1424104    15.749866    16.633818    16.513396 
 4952000    77.697297    47.707376   -7.0897271    15.653806    21.093436    18.049862 
 4953000      76.0624    47.064588   -7.6997443    16.452626    20.110306      18.2014 
 4954000    80.757877    36.609488   -8.5136209     12.99814    17.533362    14.591607 
 4955000    74.241322    41.201469   -7.7779526    13.878902    17.632757    17.467763 
 4956000    78.683487    41.523399   -8.5561717    16.484619    17.942043    15.652908 
 4957000    68.167819    43.937906   -8.5291134    16.599354     19.45191    16.415755 
 4958000    75.920172    41.771632   -8.2215643    14.658103    18.352747    16.982345 
 4959000    77.390267    45.704394   -8.6861388    15.269507    20.702868    18.418158 
 4960000    84.878438     45.05468   -7.8043304    15.949193    19.442159    17.467659 
 4961000     81.41478    43.757599   -8.2195787    14.309836    19.365963    18.301379 
 4962000     71.77098    42.640882   -8.3091454     14.47601    17.850171    18.623846 
 4963000    74.473385    43.159996   -7.5747438    13.782883    19.066591    17.885265 
 4964000    74.334343    46.499018     -8.35336    14.027904    21.741278    19.083196 
 4965000    79.794331    41.952325   -8.1738898    12.621347    19.960352    17.544516 
 4966000    72.060626    41.624098    -7.802556    13.473629    18.732361    17.220664 
 4967000    75.998227    41.140305   -7.6421322    15.716126     16.93912     16.12719 
 4968000    69.903808    44.791779   -7.1058172     14.53655    17.971014    19.390033 
 4969000    71.593936    45.456538    -7.574659    17.200963    19.106933    16.723301 
 4970000    75.163448    41.052127   -7.3938499     16.78419    16.036358    15.625429 
 4971000    74.155733    46.500285   -7.7490167    17.054309    18.173481    19.021512 
 4972000     75.25279    47.658517   -7.3825447    19.029919    19.311309    16.699834 
 4973000    78.247559    45.945755   -6.7873713    16.419117    18.605475    17.708534 
 4974000    81.596199    44.251725   -6.8815455    15.067636    17.469071    18.596563 
 4975000    72.981346    48.621338   -7.5063075    17.919711    20.105164     18.10277 
 4976000    82.624298    42.613429   -8.3962349    15.305366    18.035352    17.668945 
 4977000    68.112149    52.854487   -7.6121956    22.223382    21.051337    17.191963 
 4978000    85.077804    40.773931   -8.0336051    15.405445    17.398809    16.003282 
 4979000    81.165231    46.476562   -7.3809219    15.711131    21.086596    17.059757 
 4980000    75.905389    43.846035   -8.0897845    14.723672     20.43404    16.778107 
 4981000    87.024795    46.704461   -8.0576801    16.704745    20.683969    17.373427 
 4982000     81.72958    48.089475   -7.6696393    16.458086    21.185827    18.115201 
 4983000    80.402465    44.239206    -7.875731    14.539049     19.18602    18.389868 
 4984000    75.666253    45.273563   -8.3396303    17.397338    21.846702    14.369153 
 4985000    72.397799     46.24831   -7.5847272    15.965246    19.969437    17.898354 
 4986000     74.11101    38.844055   -8.0528077    13.892856    17.139077    15.864929 
 4987000    80.874522    37.518077   -8.2898984    14.571576    16.145917    15.090482 
 4988000    66.150769    44.766491   -7.2411026    17.411835    20.079161    14.516598 
 4989000    77.811931    37.892801   -7.5744385    15.747915    16.322604     13.39672 
 4990000    71.125113    38.761288   -7.8622166    14.312826    17.548351    14.762327 
 4991000    75.962518    39.200403    -7.764029     13.81575    18.763806    14.384876 
 4992000    73.345657    37.310568   -7.7663882    14.065905    17.449082    13.561969 
 4993000    75.738442    40.646696   -7.7607158    14.188215    17.156742    17.062455 
 4994000    79.905778    41.436541   -7.6925424    16.513427    17.572723    15.042933 
 4995000    82.969396    43.654227   -6.8517684      13.1469    21.956924    15.402171 
 4996000    88.437272    44.358593   -7.7678082     15.94294    17.274148    18.909314 
 4997000    82.104619      44.6749   -8.4175029    14.183837    18.860765    20.047801 
 4998000    75.265702    44.631519   -7.7355706    16.134962    19.927239    16.304889 
 4999000    79.212352    42.691859   -8.0729321    16.781511    20.326927    13.656353 
 5000000    74.843878    40.346263   -8.0582218    16.788934    19.054736    12.560815 
Loop time of 593.259 on 4 procs for 5000000 steps with 208 atoms

Performance: 364.091 ns/day, 0.066 hours/ns, 8428.027 timesteps/s
97.6% CPU use with 4 MPI tasks x no OpenMP threads

MPI task timing breakdown:
Section |  min time  |  avg time  |  max time  |%varavg| %total
---------------------------------------------------------------
Pair    | 196.78     | 250.86     | 299.3      | 231.0 | 42.28
Bond    | 77.12      | 103.29     | 120.16     | 158.2 | 17.41
Neigh   | 3.3128     | 3.3242     | 3.3329     |   0.4 |  0.56
Comm    | 127.93     | 185.1      | 264.08     | 366.1 | 31.20
Output  | 0.28278    | 0.36378    | 0.59797    |  22.4 |  0.06
Modify  | 34.653     | 42.809     | 46.502     |  73.6 |  7.22
Other   |            | 7.507      |            |       |  1.27

Nlocal:    52 ave 81 max 16 min
Histogram: 1 0 0 0 1 0 0 1 0 1
Nghost:    156 ave 192 max 127 min
Histogram: 1 0 1 0 0 1 0 0 0 1
Neighs:    3298.5 ave 5431 max 946 min
Histogram: 1 0 0 0 0 2 0 0 0 1

Total # of neighbors = 13194
Ave neighs/atom = 63.4327
Ave special neighs/atom = 8.35577
Neighbor list builds = 20248
Dangerous builds = 0
clear

next t
next a
jump SELF loopstart
# set logfile
log		log.run.$t
log		log.run.80
