
# Box and units  (use LJ units and periodic boundaries)
units		real
# so:
#    mass = grams/mole		# same in gromacs
#    distance = Angstroms	# nm in gromacs
#    time = femtoseconds	# ps in gromacs
#    energy = Kcal/mole		# kcal/mol in gromacs
#    velocity = Angstroms/femtosecond	# ...
#    force = Kcal/mole-Angstrom	# ...
#    temperature = Kelvin	# same in gromacs
#    pressure = atmospheres	# same in gromacs
#    dynamic viscosity = Poise	# no idea
dimension	3
atom_style	molecular
boundary	p p p

# Pair interactions require lists of neighbours to be calculated
neighbor	5.0 nsq
neigh_modify	every 1 delay 10 check yes

# define interactions
pair_style	lj12106/cut  30.0 # same as in md_sample.mdp from the smog-model web-tool
pair_modify	shift yes
bond_style	harmonic
angle_style	harmonic
dihedral_style	charmm
special_bonds	lj 0.0 0.0 0.0 angle yes dihedral yes # 3 exclusions

# READ "start" data file
read_data	../../protein/cystatin/3GAX/7-coarsegrained/data.input
  orthogonal box = (-200 -200 -200) to (200 200 200)
  1 by 1 by 1 MPI processor grid
  reading atoms ...
  208 atoms
  scanning bonds ...
  2 = max bonds/atom
  scanning angles ...
  3 = max angles/atom
  scanning dihedrals ...
  8 = max dihedrals/atom
  reading bonds ...
  207 bonds
  reading angles ...
  306 angles
  reading dihedrals ...
  708 dihedrals
  3 = max # of 1-2 neighbors
  4 = max # of 1-3 neighbors
  8 = max # of 1-4 neighbors
  612 = # of 1-3 neighbors before angle trim
  612 = # of 1-3 neighbors after angle trim
  1108 = # of 1-4 neighbors before dihedral trim
  708 = # of 1-4 neighbors after dihedral trim
  11 = max # of special neighbors

# define coeffs
include         ../../protein/cystatin/3GAX/7-coarsegrained/settings.param
pair_coeff 1 1 0.000000e+00 0.000000e+00 4.009755e+04 # CA1-CA1 type=non-native eps=0.002390 sigma=4.000000
pair_coeff 1 2 0.000000e+00 0.000000e+00 4.009755e+04 # CA1-CA2 type=non-native eps=0.002390 sigma=4.000000
pair_coeff 1 3 0.000000e+00 0.000000e+00 2.286802e+04 # CA1-SC2 type=non-native eps=0.002390 sigma=3.817121
pair_coeff 1 4 0.000000e+00 0.000000e+00 4.009755e+04 # CA1-CA3 type=non-native eps=0.002390 sigma=4.000000
pair_coeff 1 5 0.000000e+00 0.000000e+00 4.009755e+04 # CA1-SC3 type=non-native eps=0.002390 sigma=4.000000
pair_coeff 1 6 0.000000e+00 0.000000e+00 4.009755e+04 # CA1-CA4 type=non-native eps=0.002390 sigma=4.000000
pair_coeff 1 7 0.000000e+00 0.000000e+00 4.009755e+04 # CA1-SC4 type=non-native eps=0.002390 sigma=4.000000
pair_coeff 1 8 0.000000e+00 0.000000e+00 4.009755e+04 # CA1-CA5 type=non-native eps=0.002390 sigma=4.000000
pair_coeff 1 9 0.000000e+00 0.000000e+00 3.442571e+03 # CA1-SC5 type=non-native eps=0.002390 sigma=3.259921
pair_coeff 1 10 0.000000e+00 0.000000e+00 4.009755e+04 # CA1-CA6 type=non-native eps=0.002390 sigma=4.000000
pair_coeff 1 11 0.000000e+00 0.000000e+00 1.085818e+04 # CA1-SC6 type=non-native eps=0.002390 sigma=3.587401
pair_coeff 1 12 0.000000e+00 0.000000e+00 4.009755e+04 # CA1-CA7 type=non-native eps=0.002390 sigma=4.000000
pair_coeff 1 13 0.000000e+00 0.000000e+00 2.286802e+04 # CA1-SC7 type=non-native eps=0.002390 sigma=3.817121
pair_coeff 1 14 0.000000e+00 0.000000e+00 4.009755e+04 # CA1-CA8 type=non-native eps=0.002390 sigma=4.000000
pair_coeff 1 15 0.000000e+00 0.000000e+00 6.317440e+04 # CA1-SC8 type=non-native eps=0.002390 sigma=4.154435
pair_coeff 1 16 0.000000e+00 0.000000e+00 4.009755e+04 # CA1-CA9 type=non-native eps=0.002390 sigma=4.000000
pair_coeff 1 17 0.000000e+00 0.000000e+00 6.317440e+04 # CA1-SC9 type=non-native eps=0.002390 sigma=4.154435
pair_coeff 1 18 0.000000e+00 0.000000e+00 4.009755e+04 # CA1-CA10 type=non-native eps=0.002390 sigma=4.000000
pair_coeff 1 19 0.000000e+00 0.000000e+00 6.317440e+04 # CA1-SC10 type=non-native eps=0.002390 sigma=4.154435
pair_coeff 1 20 0.000000e+00 0.000000e+00 4.009755e+04 # CA1-CA11 type=non-native eps=0.002390 sigma=4.000000
pair_coeff 1 21 0.000000e+00 0.000000e+00 4.009755e+04 # CA1-CA12 type=non-native eps=0.002390 sigma=4.000000
pair_coeff 1 22 0.000000e+00 0.000000e+00 2.286802e+04 # CA1-SC12 type=non-native eps=0.002390 sigma=3.817121
pair_coeff 1 23 0.000000e+00 0.000000e+00 4.009755e+04 # CA1-CA13 type=non-native eps=0.002390 sigma=4.000000
pair_coeff 1 24 0.000000e+00 0.000000e+00 1.293687e+05 # CA1-SC13 type=non-native eps=0.002390 sigma=4.410142
pair_coeff 1 25 0.000000e+00 0.000000e+00 4.009755e+04 # CA1-CA14 type=non-native eps=0.002390 sigma=4.000000
pair_coeff 1 26 0.000000e+00 0.000000e+00 1.293687e+05 # CA1-SC14 type=non-native eps=0.002390 sigma=4.410142
pair_coeff 1 27 0.000000e+00 0.000000e+00 4.009755e+04 # CA1-CA15 type=non-native eps=0.002390 sigma=4.000000
pair_coeff 1 28 0.000000e+00 0.000000e+00 3.442571e+03 # CA1-SC15 type=non-native eps=0.002390 sigma=3.259921
pair_coeff 1 29 0.000000e+00 0.000000e+00 4.009755e+04 # CA1-CA16 type=non-native eps=0.002390 sigma=4.000000
pair_coeff 1 30 0.000000e+00 0.000000e+00 4.009755e+04 # CA1-SC16 type=non-native eps=0.002390 sigma=4.000000
pair_coeff 1 31 0.000000e+00 0.000000e+00 4.009755e+04 # CA1-CA17 type=non-native eps=0.002390 sigma=4.000000
pair_coeff 1 32 0.000000e+00 0.000000e+00 4.009755e+04 # CA1-SC17 type=non-native eps=0.002390 sigma=4.000000
pair_coeff 1 33 0.000000e+00 0.000000e+00 4.009755e+04 # CA1-CA18 type=non-native eps=0.002390 sigma=4.000000
pair_coeff 1 34 0.000000e+00 0.000000e+00 1.293687e+05 # CA1-SC18 type=non-native eps=0.002390 sigma=4.410142
pair_coeff 1 35 0.000000e+00 0.000000e+00 4.009755e+04 # CA1-CA19 type=non-native eps=0.002390 sigma=4.000000
pair_coeff 1 36 0.000000e+00 0.000000e+00 3.442571e+03 # CA1-SC19 type=non-native eps=0.002390 sigma=3.259921
pair_coeff 1 37 0.000000e+00 0.000000e+00 4.009755e+04 # CA1-CA20 type=non-native eps=0.002390 sigma=4.000000
pair_coeff 1 38 0.000000e+00 0.000000e+00 2.286802e+04 # CA1-SC20 type=non-native eps=0.002390 sigma=3.817121
pair_coeff 1 39 0.000000e+00 0.000000e+00 4.009755e+04 # CA1-CA21 type=non-native eps=0.002390 sigma=4.000000
pair_coeff 1 40 0.000000e+00 0.000000e+00 4.009755e+04 # CA1-CA22 type=non-native eps=0.002390 sigma=4.000000
pair_coeff 1 41 0.000000e+00 0.000000e+00 6.317440e+04 # CA1-SC22 type=non-native eps=0.002390 sigma=4.154435
pair_coeff 1 42 0.000000e+00 0.000000e+00 4.009755e+04 # CA1-CA23 type=non-native eps=0.002390 sigma=4.000000
pair_coeff 1 43 0.000000e+00 0.000000e+00 1.737309e+05 # CA1-SC23 type=non-native eps=0.002390 sigma=4.519842
pair_coeff 1 44 0.000000e+00 0.000000e+00 4.009755e+04 # CA1-CA24 type=non-native eps=0.002390 sigma=4.000000
pair_coeff 1 45 0.000000e+00 0.000000e+00 4.009755e+04 # CA1-SC24 type=non-native eps=0.002390 sigma=4.000000
pair_coeff 1 46 0.000000e+00 0.000000e+00 4.009755e+04 # CA1-CA25 type=non-native eps=0.002390 sigma=4.000000
pair_coeff 1 47 0.000000e+00 0.000000e+00 6.317440e+04 # CA1-SC25 type=non-native eps=0.002390 sigma=4.154435
pair_coeff 1 48 0.000000e+00 0.000000e+00 4.009755e+04 # CA1-CA26 type=non-native eps=0.002390 sigma=4.000000
pair_coeff 1 49 0.000000e+00 0.000000e+00 3.442571e+03 # CA1-SC26 type=non-native eps=0.002390 sigma=3.259921
pair_coeff 1 50 0.000000e+00 0.000000e+00 4.009755e+04 # CA1-CA27 type=non-native eps=0.002390 sigma=4.000000
pair_coeff 1 51 0.000000e+00 0.000000e+00 1.085818e+04 # CA1-SC27 type=non-native eps=0.002390 sigma=3.587401
pair_coeff 1 52 0.000000e+00 0.000000e+00 4.009755e+04 # CA1-CA28 type=non-native eps=0.002390 sigma=4.000000
pair_coeff 1 53 0.000000e+00 0.000000e+00 4.009755e+04 # CA1-SC28 type=non-native eps=0.002390 sigma=4.000000
pair_coeff 1 54 0.000000e+00 0.000000e+00 4.009755e+04 # CA1-CA29 type=non-native eps=0.002390 sigma=4.000000
pair_coeff 1 55 0.000000e+00 0.000000e+00 4.009755e+04 # CA1-SC29 type=non-native eps=0.002390 sigma=4.000000
pair_coeff 1 56 0.000000e+00 0.000000e+00 4.009755e+04 # CA1-CA30 type=non-native eps=0.002390 sigma=4.000000
pair_coeff 1 57 0.000000e+00 0.000000e+00 4.009755e+04 # CA1-SC30 type=non-native eps=0.002390 sigma=4.000000
pair_coeff 1 58 0.000000e+00 0.000000e+00 4.009755e+04 # CA1-CA31 type=non-native eps=0.002390 sigma=4.000000
pair_coeff 1 59 0.000000e+00 0.000000e+00 1.737309e+05 # CA1-SC31 type=non-native eps=0.002390 sigma=4.519842
pair_coeff 1 60 0.000000e+00 0.000000e+00 4.009755e+04 # CA1-CA32 type=non-native eps=0.002390 sigma=4.000000
pair_coeff 1 61 0.000000e+00 0.000000e+00 9.272377e+04 # CA1-SC32 type=non-native eps=0.002390 sigma=4.289428
pair_coeff 1 62 0.000000e+00 0.000000e+00 4.009755e+04 # CA1-CA33 type=non-native eps=0.002390 sigma=4.000000
pair_coeff 1 63 0.000000e+00 0.000000e+00 1.085818e+04 # CA1-SC33 type=non-native eps=0.002390 sigma=3.587401
pair_coeff 1 64 0.000000e+00 0.000000e+00 4.009755e+04 # CA1-CA34 type=non-native eps=0.002390 sigma=4.000000
pair_coeff 1 65 0.000000e+00 0.000000e+00 1.293687e+05 # CA1-SC34 type=non-native eps=0.002390 sigma=4.410142
pair_coeff 1 66 0.000000e+00 0.000000e+00 4.009755e+04 # CA1-CA35 type=non-native eps=0.002390 sigma=4.000000
pair_coeff 1 67 0.000000e+00 0.000000e+00 3.442571e+03 # CA1-SC35 type=non-native eps=0.002390 sigma=3.259921
pair_coeff 1 68 0.000000e+00 0.000000e+00 4.009755e+04 # CA1-CA36 type=non-native eps=0.002390 sigma=4.000000
pair_coeff 1 69 0.000000e+00 0.000000e+00 4.009755e+04 # CA1-SC36 type=non-native eps=0.002390 sigma=4.000000
pair_coeff 1 70 0.000000e+00 0.000000e+00 4.009755e+04 # CA1-CA37 type=non-native eps=0.002390 sigma=4.000000
pair_coeff 1 71 0.000000e+00 0.000000e+00 6.317440e+04 # CA1-SC37 type=non-native eps=0.002390 sigma=4.154435
pair_coeff 1 72 0.000000e+00 0.000000e+00 4.009755e+04 # CA1-CA38 type=non-native eps=0.002390 sigma=4.000000
pair_coeff 1 73 0.000000e+00 0.000000e+00 2.286802e+04 # CA1-SC38 type=non-native eps=0.002390 sigma=3.817121
pair_coeff 1 74 0.000000e+00 0.000000e+00 4.009755e+04 # CA1-CA39 type=non-native eps=0.002390 sigma=4.000000
pair_coeff 1 75 0.000000e+00 0.000000e+00 2.286802e+04 # CA1-SC39 type=non-native eps=0.002390 sigma=3.817121
pair_coeff 1 76 0.000000e+00 0.000000e+00 4.009755e+04 # CA1-CA40 type=non-native eps=0.002390 sigma=4.000000
pair_coeff 1 77 0.000000e+00 0.000000e+00 1.293687e+05 # CA1-SC40 type=non-native eps=0.002390 sigma=4.410142
pair_coeff 1 78 0.000000e+00 0.000000e+00 4.009755e+04 # CA1-CA41 type=non-native eps=0.002390 sigma=4.000000
pair_coeff 1 79 0.000000e+00 0.000000e+00 3.442571e+03 # CA1-SC41 type=non-native eps=0.002390 sigma=3.259921
pair_coeff 1 80 0.000000e+00 0.000000e+00 4.009755e+04 # CA1-CA42 type=non-native eps=0.002390 sigma=4.000000
pair_coeff 1 81 0.000000e+00 0.000000e+00 1.293687e+05 # CA1-SC42 type=non-native eps=0.002390 sigma=4.410142
pair_coeff 1 82 -1.682542e+05 0.000000e+00 2.961242e+10 # CA1-CA43 type=native eps=0.239000 sigma=8.402780
pair_coeff 1 83 0.000000e+00 0.000000e+00 6.317440e+04 # CA1-SC43 type=non-native eps=0.002390 sigma=4.154435
pair_coeff 1 84 -5.400495e+03 0.000000e+00 1.830461e+08 # CA1-CA44 type=native eps=0.039833 sigma=6.385469
pair_coeff 1 85 -2.348902e+03 0.000000e+00 6.925535e+06 # CA1-SC44 type=native eps=0.199167 sigma=4.250464
pair_coeff 1 86 -2.045708e+05 0.000000e+00 4.377533e+10 # CA1-CA45 type=native eps=0.239000 sigma=8.680991
pair_coeff 1 87 0.000000e+00 0.000000e+00 4.009755e+04 # CA1-SC45 type=non-native eps=0.002390 sigma=4.000000
pair_coeff 1 88 0.000000e+00 0.000000e+00 4.009755e+04 # CA1-CA46 type=non-native eps=0.002390 sigma=4.000000
pair_coeff 1 89 0.000000e+00 0.000000e+00 2.286802e+04 # CA1-SC46 type=non-native eps=0.002390 sigma=3.817121
pair_coeff 1 90 0.000000e+00 0.000000e+00 4.009755e+04 # CA1-CA47 type=non-native eps=0.002390 sigma=4.000000
pair_coeff 1 91 0.000000e+00 0.000000e+00 3.442571e+03 # CA1-SC47 type=non-native eps=0.002390 sigma=3.259921
pair_coeff 1 92 0.000000e+00 0.000000e+00 4.009755e+04 # CA1-CA48 type=non-native eps=0.002390 sigma=4.000000
pair_coeff 1 93 0.000000e+00 0.000000e+00 4.009755e+04 # CA1-CA49 type=non-native eps=0.002390 sigma=4.000000
pair_coeff 1 94 0.000000e+00 0.000000e+00 2.286802e+04 # CA1-SC49 type=non-native eps=0.002390 sigma=3.817121
pair_coeff 1 95 0.000000e+00 0.000000e+00 4.009755e+04 # CA1-CA50 type=non-native eps=0.002390 sigma=4.000000
pair_coeff 1 96 0.000000e+00 0.000000e+00 4.009755e+04 # CA1-SC50 type=non-native eps=0.002390 sigma=4.000000
pair_coeff 1 97 0.000000e+00 0.000000e+00 4.009755e+04 # CA1-CA51 type=non-native eps=0.002390 sigma=4.000000
pair_coeff 1 98 0.000000e+00 0.000000e+00 1.737309e+05 # CA1-SC51 type=non-native eps=0.002390 sigma=4.519842
pair_coeff 1 99 0.000000e+00 0.000000e+00 4.009755e+04 # CA1-CA52 type=non-native eps=0.002390 sigma=4.000000
pair_coeff 1 100 0.000000e+00 0.000000e+00 1.293687e+05 # CA1-SC52 type=non-native eps=0.002390 sigma=4.410142
pair_coeff 1 101 0.000000e+00 0.000000e+00 4.009755e+04 # CA1-CA53 type=non-native eps=0.002390 sigma=4.000000
pair_coeff 1 102 0.000000e+00 0.000000e+00 4.009755e+04 # CA1-SC53 type=non-native eps=0.002390 sigma=4.000000
pair_coeff 1 103 0.000000e+00 0.000000e+00 4.009755e+04 # CA1-CA54 type=non-native eps=0.002390 sigma=4.000000
pair_coeff 1 104 0.000000e+00 0.000000e+00 4.009755e+04 # CA1-SC54 type=non-native eps=0.002390 sigma=4.000000
pair_coeff 1 105 0.000000e+00 0.000000e+00 4.009755e+04 # CA1-CA55 type=non-native eps=0.002390 sigma=4.000000
pair_coeff 1 106 0.000000e+00 0.000000e+00 2.286802e+04 # CA1-SC55 type=non-native eps=0.002390 sigma=3.817121
pair_coeff 1 107 0.000000e+00 0.000000e+00 4.009755e+04 # CA1-CA56 type=non-native eps=0.002390 sigma=4.000000
pair_coeff 1 108 0.000000e+00 0.000000e+00 6.317440e+04 # CA1-SC56 type=non-native eps=0.002390 sigma=4.154435
pair_coeff 1 109 0.000000e+00 0.000000e+00 4.009755e+04 # CA1-CA57 type=non-native eps=0.002390 sigma=4.000000
pair_coeff 1 110 0.000000e+00 0.000000e+00 4.009755e+04 # CA1-SC57 type=non-native eps=0.002390 sigma=4.000000
pair_coeff 1 111 0.000000e+00 0.000000e+00 4.009755e+04 # CA1-CA58 type=non-native eps=0.002390 sigma=4.000000
pair_coeff 1 112 0.000000e+00 0.000000e+00 4.009755e+04 # CA1-CA59 type=non-native eps=0.002390 sigma=4.000000
pair_coeff 1 113 0.000000e+00 0.000000e+00 1.293687e+05 # CA1-SC59 type=non-native eps=0.002390 sigma=4.410142
pair_coeff 1 114 0.000000e+00 0.000000e+00 4.009755e+04 # CA1-CA60 type=non-native eps=0.002390 sigma=4.000000
pair_coeff 1 115 0.000000e+00 0.000000e+00 2.286802e+04 # CA1-SC60 type=non-native eps=0.002390 sigma=3.817121
pair_coeff 1 116 0.000000e+00 0.000000e+00 4.009755e+04 # CA1-CA61 type=non-native eps=0.002390 sigma=4.000000
pair_coeff 1 117 0.000000e+00 0.000000e+00 2.286802e+04 # CA1-SC61 type=non-native eps=0.002390 sigma=3.817121
pair_coeff 1 118 0.000000e+00 0.000000e+00 4.009755e+04 # CA1-CA62 type=non-native eps=0.002390 sigma=4.000000
pair_coeff 1 119 0.000000e+00 0.000000e+00 1.085818e+04 # CA1-SC62 type=non-native eps=0.002390 sigma=3.587401
pair_coeff 1 120 0.000000e+00 0.000000e+00 4.009755e+04 # CA1-CA63 type=non-native eps=0.002390 sigma=4.000000
pair_coeff 1 121 0.000000e+00 0.000000e+00 2.286802e+04 # CA1-SC63 type=non-native eps=0.002390 sigma=3.817121
pair_coeff 1 122 0.000000e+00 0.000000e+00 4.009755e+04 # CA1-CA64 type=non-native eps=0.002390 sigma=4.000000
pair_coeff 1 123 0.000000e+00 0.000000e+00 6.317440e+04 # CA1-SC64 type=non-native eps=0.002390 sigma=4.154435
pair_coeff 1 124 0.000000e+00 0.000000e+00 4.009755e+04 # CA1-CA65 type=non-native eps=0.002390 sigma=4.000000
pair_coeff 1 125 0.000000e+00 0.000000e+00 2.286802e+04 # CA1-SC65 type=non-native eps=0.002390 sigma=3.817121
pair_coeff 1 126 0.000000e+00 0.000000e+00 4.009755e+04 # CA1-CA66 type=non-native eps=0.002390 sigma=4.000000
pair_coeff 1 127 0.000000e+00 0.000000e+00 9.272377e+04 # CA1-SC66 type=non-native eps=0.002390 sigma=4.289428
pair_coeff 1 128 0.000000e+00 0.000000e+00 4.009755e+04 # CA1-CA67 type=non-native eps=0.002390 sigma=4.000000
pair_coeff 1 129 0.000000e+00 0.000000e+00 4.009755e+04 # CA1-SC67 type=non-native eps=0.002390 sigma=4.000000
pair_coeff 1 130 0.000000e+00 0.000000e+00 4.009755e+04 # CA1-CA68 type=non-native eps=0.002390 sigma=4.000000
pair_coeff 1 131 0.000000e+00 0.000000e+00 4.009755e+04 # CA1-SC68 type=non-native eps=0.002390 sigma=4.000000
pair_coeff 1 132 0.000000e+00 0.000000e+00 4.009755e+04 # CA1-CA69 type=non-native eps=0.002390 sigma=4.000000
pair_coeff 1 133 0.000000e+00 0.000000e+00 4.009755e+04 # CA1-SC69 type=non-native eps=0.002390 sigma=4.000000
pair_coeff 1 134 0.000000e+00 0.000000e+00 4.009755e+04 # CA1-CA70 type=non-native eps=0.002390 sigma=4.000000
pair_coeff 1 135 0.000000e+00 0.000000e+00 1.085818e+04 # CA1-SC70 type=non-native eps=0.002390 sigma=3.587401
pair_coeff 1 136 0.000000e+00 0.000000e+00 4.009755e+04 # CA1-CA71 type=non-native eps=0.002390 sigma=4.000000
pair_coeff 1 137 0.000000e+00 0.000000e+00 2.286802e+04 # CA1-SC71 type=non-native eps=0.002390 sigma=3.817121
pair_coeff 1 138 0.000000e+00 0.000000e+00 4.009755e+04 # CA1-CA72 type=non-native eps=0.002390 sigma=4.000000
pair_coeff 1 139 0.000000e+00 0.000000e+00 1.293687e+05 # CA1-SC72 type=non-native eps=0.002390 sigma=4.410142
pair_coeff 1 140 0.000000e+00 0.000000e+00 4.009755e+04 # CA1-CA73 type=non-native eps=0.002390 sigma=4.000000
pair_coeff 1 141 0.000000e+00 0.000000e+00 9.272377e+04 # CA1-SC73 type=non-native eps=0.002390 sigma=4.289428
pair_coeff 1 142 0.000000e+00 0.000000e+00 4.009755e+04 # CA1-CA74 type=non-native eps=0.002390 sigma=4.000000
pair_coeff 1 143 0.000000e+00 0.000000e+00 4.009755e+04 # CA1-SC74 type=non-native eps=0.002390 sigma=4.000000
pair_coeff 1 144 0.000000e+00 0.000000e+00 4.009755e+04 # CA1-CA75 type=non-native eps=0.002390 sigma=4.000000
pair_coeff 1 145 0.000000e+00 0.000000e+00 6.317440e+04 # CA1-SC75 type=non-native eps=0.002390 sigma=4.154435
pair_coeff 1 146 0.000000e+00 0.000000e+00 4.009755e+04 # CA1-CA76 type=non-native eps=0.002390 sigma=4.000000
pair_coeff 1 147 0.000000e+00 0.000000e+00 2.286802e+04 # CA1-SC76 type=non-native eps=0.002390 sigma=3.817121
pair_coeff 1 148 0.000000e+00 0.000000e+00 4.009755e+04 # CA1-CA77 type=non-native eps=0.002390 sigma=4.000000
pair_coeff 1 149 0.000000e+00 0.000000e+00 9.272377e+04 # CA1-SC77 type=non-native eps=0.002390 sigma=4.289428
pair_coeff 1 150 0.000000e+00 0.000000e+00 4.009755e+04 # CA1-CA78 type=non-native eps=0.002390 sigma=4.000000
pair_coeff 1 151 0.000000e+00 0.000000e+00 4.009755e+04 # CA1-SC78 type=non-native eps=0.002390 sigma=4.000000
pair_coeff 1 152 0.000000e+00 0.000000e+00 4.009755e+04 # CA1-CA79 type=non-native eps=0.002390 sigma=4.000000
pair_coeff 1 153 0.000000e+00 0.000000e+00 6.317440e+04 # CA1-SC79 type=non-native eps=0.002390 sigma=4.154435
pair_coeff 1 154 0.000000e+00 0.000000e+00 4.009755e+04 # CA1-CA80 type=non-native eps=0.002390 sigma=4.000000
pair_coeff 1 155 0.000000e+00 0.000000e+00 1.293687e+05 # CA1-SC80 type=non-native eps=0.002390 sigma=4.410142
pair_coeff 1 156 0.000000e+00 0.000000e+00 4.009755e+04 # CA1-CA81 type=non-native eps=0.002390 sigma=4.000000
pair_coeff 1 157 0.000000e+00 0.000000e+00 6.317440e+04 # CA1-SC81 type=non-native eps=0.002390 sigma=4.154435
pair_coeff 1 158 0.000000e+00 0.000000e+00 4.009755e+04 # CA1-CA82 type=non-native eps=0.002390 sigma=4.000000
pair_coeff 1 159 0.000000e+00 0.000000e+00 3.442571e+03 # CA1-SC82 type=non-native eps=0.002390 sigma=3.259921
pair_coeff 1 160 0.000000e+00 0.000000e+00 4.009755e+04 # CA1-CA83 type=non-native eps=0.002390 sigma=4.000000
pair_coeff 1 161 0.000000e+00 0.000000e+00 1.293687e+05 # CA1-SC83 type=non-native eps=0.002390 sigma=4.410142
pair_coeff 1 162 0.000000e+00 0.000000e+00 4.009755e+04 # CA1-CA84 type=non-native eps=0.002390 sigma=4.000000
pair_coeff 1 163 0.000000e+00 0.000000e+00 1.085818e+04 # CA1-SC84 type=non-native eps=0.002390 sigma=3.587401
pair_coeff 1 164 0.000000e+00 0.000000e+00 4.009755e+04 # CA1-CA85 type=non-native eps=0.002390 sigma=4.000000
pair_coeff 1 165 0.000000e+00 0.000000e+00 1.085818e+04 # CA1-SC85 type=non-native eps=0.002390 sigma=3.587401
pair_coeff 1 166 0.000000e+00 0.000000e+00 4.009755e+04 # CA1-CA86 type=non-native eps=0.002390 sigma=4.000000
pair_coeff 1 167 0.000000e+00 0.000000e+00 1.293687e+05 # CA1-SC86 type=non-native eps=0.002390 sigma=4.410142
pair_coeff 1 168 0.000000e+00 0.000000e+00 4.009755e+04 # CA1-CA87 type=non-native eps=0.002390 sigma=4.000000
pair_coeff 1 169 0.000000e+00 0.000000e+00 6.317440e+04 # CA1-SC87 type=non-native eps=0.002390 sigma=4.154435
pair_coeff 1 170 0.000000e+00 0.000000e+00 4.009755e+04 # CA1-CA88 type=non-native eps=0.002390 sigma=4.000000
pair_coeff 1 171 0.000000e+00 0.000000e+00 4.009755e+04 # CA1-SC88 type=non-native eps=0.002390 sigma=4.000000
pair_coeff 1 172 0.000000e+00 0.000000e+00 4.009755e+04 # CA1-CA89 type=non-native eps=0.002390 sigma=4.000000
pair_coeff 1 173 0.000000e+00 0.000000e+00 1.737309e+05 # CA1-SC89 type=non-native eps=0.002390 sigma=4.519842
pair_coeff 1 174 0.000000e+00 0.000000e+00 4.009755e+04 # CA1-CA90 type=non-native eps=0.002390 sigma=4.000000
pair_coeff 1 175 0.000000e+00 0.000000e+00 3.442571e+03 # CA1-SC90 type=non-native eps=0.002390 sigma=3.259921
pair_coeff 1 176 0.000000e+00 0.000000e+00 4.009755e+04 # CA1-CA91 type=non-native eps=0.002390 sigma=4.000000
pair_coeff 1 177 0.000000e+00 0.000000e+00 2.286802e+04 # CA1-SC91 type=non-native eps=0.002390 sigma=3.817121
pair_coeff 1 178 0.000000e+00 0.000000e+00 4.009755e+04 # CA1-CA92 type=non-native eps=0.002390 sigma=4.000000
pair_coeff 1 179 0.000000e+00 0.000000e+00 2.286802e+04 # CA1-SC92 type=non-native eps=0.002390 sigma=3.817121
pair_coeff 1 180 0.000000e+00 0.000000e+00 4.009755e+04 # CA1-CA93 type=non-native eps=0.002390 sigma=4.000000
pair_coeff 1 181 0.000000e+00 0.000000e+00 2.880942e+05 # CA1-SC93 type=non-native eps=0.002390 sigma=4.714418
pair_coeff 1 182 0.000000e+00 0.000000e+00 4.009755e+04 # CA1-CA94 type=non-native eps=0.002390 sigma=4.000000
pair_coeff 1 183 0.000000e+00 0.000000e+00 6.317440e+04 # CA1-SC94 type=non-native eps=0.002390 sigma=4.154435
pair_coeff 1 184 0.000000e+00 0.000000e+00 4.009755e+04 # CA1-CA95 type=non-native eps=0.002390 sigma=4.000000
pair_coeff 1 185 0.000000e+00 0.000000e+00 4.009755e+04 # CA1-CA96 type=non-native eps=0.002390 sigma=4.000000
pair_coeff 1 186 0.000000e+00 0.000000e+00 2.286802e+04 # CA1-SC96 type=non-native eps=0.002390 sigma=3.817121
pair_coeff 1 187 0.000000e+00 0.000000e+00 4.009755e+04 # CA1-CA97 type=non-native eps=0.002390 sigma=4.000000
pair_coeff 1 188 0.000000e+00 0.000000e+00 4.009755e+04 # CA1-SC97 type=non-native eps=0.002390 sigma=4.000000
pair_coeff 1 189 0.000000e+00 0.000000e+00 4.009755e+04 # CA1-CA98 type=non-native eps=0.002390 sigma=4.000000
pair_coeff 1 190 0.000000e+00 0.000000e+00 2.286802e+04 # CA1-SC98 type=non-native eps=0.002390 sigma=3.817121
pair_coeff 1 191 0.000000e+00 0.000000e+00 4.009755e+04 # CA1-CA99 type=non-native eps=0.002390 sigma=4.000000
pair_coeff 1 192 0.000000e+00 0.000000e+00 4.009755e+04 # CA1-SC99 type=non-native eps=0.002390 sigma=4.000000
pair_coeff 1 193 0.000000e+00 0.000000e+00 4.009755e+04 # CA1-CA100 type=non-native eps=0.002390 sigma=4.000000
pair_coeff 1 194 0.000000e+00 0.000000e+00 1.085818e+04 # CA1-SC100 type=non-native eps=0.002390 sigma=3.587401
pair_coeff 1 195 0.000000e+00 0.000000e+00 4.009755e+04 # CA1-CA101 type=non-native eps=0.002390 sigma=4.000000
pair_coeff 1 196 0.000000e+00 0.000000e+00 6.317440e+04 # CA1-SC101 type=non-native eps=0.002390 sigma=4.154435
pair_coeff 1 197 0.000000e+00 0.000000e+00 4.009755e+04 # CA1-CA102 type=non-native eps=0.002390 sigma=4.000000
pair_coeff 1 198 0.000000e+00 0.000000e+00 1.085818e+04 # CA1-SC102 type=non-native eps=0.002390 sigma=3.587401
pair_coeff 1 199 0.000000e+00 0.000000e+00 4.009755e+04 # CA1-CA103 type=non-native eps=0.002390 sigma=4.000000
pair_coeff 1 200 0.000000e+00 0.000000e+00 2.286802e+04 # CA1-SC103 type=non-native eps=0.002390 sigma=3.817121
pair_coeff 1 201 0.000000e+00 0.000000e+00 4.009755e+04 # CA1-CA104 type=non-native eps=0.002390 sigma=4.000000
pair_coeff 1 202 0.000000e+00 0.000000e+00 1.085818e+04 # CA1-SC104 type=non-native eps=0.002390 sigma=3.587401
pair_coeff 1 203 0.000000e+00 0.000000e+00 4.009755e+04 # CA1-CA105 type=non-native eps=0.002390 sigma=4.000000
pair_coeff 1 204 0.000000e+00 0.000000e+00 6.317440e+04 # CA1-SC105 type=non-native eps=0.002390 sigma=4.154435
pair_coeff 1 205 0.000000e+00 0.000000e+00 4.009755e+04 # CA1-CA106 type=non-native eps=0.002390 sigma=4.000000
pair_coeff 1 206 0.000000e+00 0.000000e+00 4.009755e+04 # CA1-SC106 type=non-native eps=0.002390 sigma=4.000000
pair_coeff 1 207 0.000000e+00 0.000000e+00 4.009755e+04 # CA1-CA107 type=non-native eps=0.002390 sigma=4.000000
pair_coeff 1 208 0.000000e+00 0.000000e+00 1.085818e+04 # CA1-SC107 type=non-native eps=0.002390 sigma=3.587401
pair_coeff 2 2 0.000000e+00 0.000000e+00 4.009755e+04 # CA2-CA2 type=non-native eps=0.002390 sigma=4.000000
pair_coeff 2 3 0.000000e+00 0.000000e+00 2.286802e+04 # CA2-SC2 type=non-native eps=0.002390 sigma=3.817121
pair_coeff 2 4 0.000000e+00 0.000000e+00 4.009755e+04 # CA2-CA3 type=non-native eps=0.002390 sigma=4.000000
pair_coeff 2 5 0.000000e+00 0.000000e+00 4.009755e+04 # CA2-SC3 type=non-native eps=0.002390 sigma=4.000000
pair_coeff 2 6 0.000000e+00 0.000000e+00 4.009755e+04 # CA2-CA4 type=non-native eps=0.002390 sigma=4.000000
pair_coeff 2 7 0.000000e+00 0.000000e+00 4.009755e+04 # CA2-SC4 type=non-native eps=0.002390 sigma=4.000000
pair_coeff 2 8 0.000000e+00 0.000000e+00 4.009755e+04 # CA2-CA5 type=non-native eps=0.002390 sigma=4.000000
pair_coeff 2 9 0.000000e+00 0.000000e+00 3.442571e+03 # CA2-SC5 type=non-native eps=0.002390 sigma=3.259921
pair_coeff 2 10 0.000000e+00 0.000000e+00 4.009755e+04 # CA2-CA6 type=non-native eps=0.002390 sigma=4.000000
pair_coeff 2 11 0.000000e+00 0.000000e+00 1.085818e+04 # CA2-SC6 type=non-native eps=0.002390 sigma=3.587401
pair_coeff 2 12 0.000000e+00 0.000000e+00 4.009755e+04 # CA2-CA7 type=non-native eps=0.002390 sigma=4.000000
pair_coeff 2 13 0.000000e+00 0.000000e+00 2.286802e+04 # CA2-SC7 type=non-native eps=0.002390 sigma=3.817121
pair_coeff 2 14 0.000000e+00 0.000000e+00 4.009755e+04 # CA2-CA8 type=non-native eps=0.002390 sigma=4.000000
pair_coeff 2 15 0.000000e+00 0.000000e+00 6.317440e+04 # CA2-SC8 type=non-native eps=0.002390 sigma=4.154435
pair_coeff 2 16 0.000000e+00 0.000000e+00 4.009755e+04 # CA2-CA9 type=non-native eps=0.002390 sigma=4.000000
pair_coeff 2 17 0.000000e+00 0.000000e+00 6.317440e+04 # CA2-SC9 type=non-native eps=0.002390 sigma=4.154435
pair_coeff 2 18 0.000000e+00 0.000000e+00 4.009755e+04 # CA2-CA10 type=non-native eps=0.002390 sigma=4.000000
pair_coeff 2 19 0.000000e+00 0.000000e+00 6.317440e+04 # CA2-SC10 type=non-native eps=0.002390 sigma=4.154435
pair_coeff 2 20 0.000000e+00 0.000000e+00 4.009755e+04 # CA2-CA11 type=non-native eps=0.002390 sigma=4.000000
pair_coeff 2 21 0.000000e+00 0.000000e+00 4.009755e+04 # CA2-CA12 type=non-native eps=0.002390 sigma=4.000000
pair_coeff 2 22 0.000000e+00 0.000000e+00 2.286802e+04 # CA2-SC12 type=non-native eps=0.002390 sigma=3.817121
pair_coeff 2 23 0.000000e+00 0.000000e+00 4.009755e+04 # CA2-CA13 type=non-native eps=0.002390 sigma=4.000000
pair_coeff 2 24 0.000000e+00 0.000000e+00 1.293687e+05 # CA2-SC13 type=non-native eps=0.002390 sigma=4.410142
pair_coeff 2 25 0.000000e+00 0.000000e+00 4.009755e+04 # CA2-CA14 type=non-native eps=0.002390 sigma=4.000000
pair_coeff 2 26 0.000000e+00 0.000000e+00 1.293687e+05 # CA2-SC14 type=non-native eps=0.002390 sigma=4.410142
pair_coeff 2 27 0.000000e+00 0.000000e+00 4.009755e+04 # CA2-CA15 type=non-native eps=0.002390 sigma=4.000000
pair_coeff 2 28 0.000000e+00 0.000000e+00 3.442571e+03 # CA2-SC15 type=non-native eps=0.002390 sigma=3.259921
pair_coeff 2 29 0.000000e+00 0.000000e+00 4.009755e+04 # CA2-CA16 type=non-native eps=0.002390 sigma=4.000000
pair_coeff 2 30 0.000000e+00 0.000000e+00 4.009755e+04 # CA2-SC16 type=non-native eps=0.002390 sigma=4.000000
pair_coeff 2 31 0.000000e+00 0.000000e+00 4.009755e+04 # CA2-CA17 type=non-native eps=0.002390 sigma=4.000000
pair_coeff 2 32 0.000000e+00 0.000000e+00 4.009755e+04 # CA2-SC17 type=non-native eps=0.002390 sigma=4.000000
pair_coeff 2 33 0.000000e+00 0.000000e+00 4.009755e+04 # CA2-CA18 type=non-native eps=0.002390 sigma=4.000000
pair_coeff 2 34 0.000000e+00 0.000000e+00 1.293687e+05 # CA2-SC18 type=non-native eps=0.002390 sigma=4.410142
pair_coeff 2 35 0.000000e+00 0.000000e+00 4.009755e+04 # CA2-CA19 type=non-native eps=0.002390 sigma=4.000000
pair_coeff 2 36 0.000000e+00 0.000000e+00 3.442571e+03 # CA2-SC19 type=non-native eps=0.002390 sigma=3.259921
pair_coeff 2 37 0.000000e+00 0.000000e+00 4.009755e+04 # CA2-CA20 type=non-native eps=0.002390 sigma=4.000000
pair_coeff 2 38 0.000000e+00 0.000000e+00 2.286802e+04 # CA2-SC20 type=non-native eps=0.002390 sigma=3.817121
pair_coeff 2 39 0.000000e+00 0.000000e+00 4.009755e+04 # CA2-CA21 type=non-native eps=0.002390 sigma=4.000000
pair_coeff 2 40 0.000000e+00 0.000000e+00 4.009755e+04 # CA2-CA22 type=non-native eps=0.002390 sigma=4.000000
pair_coeff 2 41 0.000000e+00 0.000000e+00 6.317440e+04 # CA2-SC22 type=non-native eps=0.002390 sigma=4.154435
pair_coeff 2 42 0.000000e+00 0.000000e+00 4.009755e+04 # CA2-CA23 type=non-native eps=0.002390 sigma=4.000000
pair_coeff 2 43 0.000000e+00 0.000000e+00 1.737309e+05 # CA2-SC23 type=non-native eps=0.002390 sigma=4.519842
pair_coeff 2 44 0.000000e+00 0.000000e+00 4.009755e+04 # CA2-CA24 type=non-native eps=0.002390 sigma=4.000000
pair_coeff 2 45 0.000000e+00 0.000000e+00 4.009755e+04 # CA2-SC24 type=non-native eps=0.002390 sigma=4.000000
pair_coeff 2 46 0.000000e+00 0.000000e+00 4.009755e+04 # CA2-CA25 type=non-native eps=0.002390 sigma=4.000000
pair_coeff 2 47 0.000000e+00 0.000000e+00 6.317440e+04 # CA2-SC25 type=non-native eps=0.002390 sigma=4.154435
pair_coeff 2 48 0.000000e+00 0.000000e+00 4.009755e+04 # CA2-CA26 type=non-native eps=0.002390 sigma=4.000000
pair_coeff 2 49 0.000000e+00 0.000000e+00 3.442571e+03 # CA2-SC26 type=non-native eps=0.002390 sigma=3.259921
pair_coeff 2 50 0.000000e+00 0.000000e+00 4.009755e+04 # CA2-CA27 type=non-native eps=0.002390 sigma=4.000000
pair_coeff 2 51 0.000000e+00 0.000000e+00 1.085818e+04 # CA2-SC27 type=non-native eps=0.002390 sigma=3.587401
pair_coeff 2 52 0.000000e+00 0.000000e+00 4.009755e+04 # CA2-CA28 type=non-native eps=0.002390 sigma=4.000000
pair_coeff 2 53 0.000000e+00 0.000000e+00 4.009755e+04 # CA2-SC28 type=non-native eps=0.002390 sigma=4.000000
pair_coeff 2 54 0.000000e+00 0.000000e+00 4.009755e+04 # CA2-CA29 type=non-native eps=0.002390 sigma=4.000000
pair_coeff 2 55 0.000000e+00 0.000000e+00 4.009755e+04 # CA2-SC29 type=non-native eps=0.002390 sigma=4.000000
pair_coeff 2 56 0.000000e+00 0.000000e+00 4.009755e+04 # CA2-CA30 type=non-native eps=0.002390 sigma=4.000000
pair_coeff 2 57 0.000000e+00 0.000000e+00 4.009755e+04 # CA2-SC30 type=non-native eps=0.002390 sigma=4.000000
pair_coeff 2 58 0.000000e+00 0.000000e+00 4.009755e+04 # CA2-CA31 type=non-native eps=0.002390 sigma=4.000000
pair_coeff 2 59 0.000000e+00 0.000000e+00 1.737309e+05 # CA2-SC31 type=non-native eps=0.002390 sigma=4.519842
pair_coeff 2 60 0.000000e+00 0.000000e+00 4.009755e+04 # CA2-CA32 type=non-native eps=0.002390 sigma=4.000000
pair_coeff 2 61 0.000000e+00 0.000000e+00 9.272377e+04 # CA2-SC32 type=non-native eps=0.002390 sigma=4.289428
pair_coeff 2 62 0.000000e+00 0.000000e+00 4.009755e+04 # CA2-CA33 type=non-native eps=0.002390 sigma=4.000000
pair_coeff 2 63 0.000000e+00 0.000000e+00 1.085818e+04 # CA2-SC33 type=non-native eps=0.002390 sigma=3.587401
pair_coeff 2 64 0.000000e+00 0.000000e+00 4.009755e+04 # CA2-CA34 type=non-native eps=0.002390 sigma=4.000000
pair_coeff 2 65 0.000000e+00 0.000000e+00 1.293687e+05 # CA2-SC34 type=non-native eps=0.002390 sigma=4.410142
pair_coeff 2 66 0.000000e+00 0.000000e+00 4.009755e+04 # CA2-CA35 type=non-native eps=0.002390 sigma=4.000000
pair_coeff 2 67 0.000000e+00 0.000000e+00 3.442571e+03 # CA2-SC35 type=non-native eps=0.002390 sigma=3.259921
pair_coeff 2 68 0.000000e+00 0.000000e+00 4.009755e+04 # CA2-CA36 type=non-native eps=0.002390 sigma=4.000000
pair_coeff 2 69 0.000000e+00 0.000000e+00 4.009755e+04 # CA2-SC36 type=non-native eps=0.002390 sigma=4.000000
pair_coeff 2 70 0.000000e+00 0.000000e+00 4.009755e+04 # CA2-CA37 type=non-native eps=0.002390 sigma=4.000000
pair_coeff 2 71 0.000000e+00 0.000000e+00 6.317440e+04 # CA2-SC37 type=non-native eps=0.002390 sigma=4.154435
pair_coeff 2 72 0.000000e+00 0.000000e+00 4.009755e+04 # CA2-CA38 type=non-native eps=0.002390 sigma=4.000000
pair_coeff 2 73 0.000000e+00 0.000000e+00 2.286802e+04 # CA2-SC38 type=non-native eps=0.002390 sigma=3.817121
pair_coeff 2 74 0.000000e+00 0.000000e+00 4.009755e+04 # CA2-CA39 type=non-native eps=0.002390 sigma=4.000000
pair_coeff 2 75 0.000000e+00 0.000000e+00 2.286802e+04 # CA2-SC39 type=non-native eps=0.002390 sigma=3.817121
pair_coeff 2 76 0.000000e+00 0.000000e+00 4.009755e+04 # CA2-CA40 type=non-native eps=0.002390 sigma=4.000000
pair_coeff 2 77 0.000000e+00 0.000000e+00 1.293687e+05 # CA2-SC40 type=non-native eps=0.002390 sigma=4.410142
pair_coeff 2 78 0.000000e+00 0.000000e+00 4.009755e+04 # CA2-CA41 type=non-native eps=0.002390 sigma=4.000000
pair_coeff 2 79 0.000000e+00 0.000000e+00 3.442571e+03 # CA2-SC41 type=non-native eps=0.002390 sigma=3.259921
pair_coeff 2 80 0.000000e+00 0.000000e+00 4.009755e+04 # CA2-CA42 type=non-native eps=0.002390 sigma=4.000000
pair_coeff 2 81 -5.780466e+03 0.000000e+00 1.048550e+08 # CA2-SC42 type=native eps=0.079667 sigma=5.753640
pair_coeff 2 82 -3.121259e+03 0.000000e+00 2.038129e+07 # CA2-CA43 type=native eps=0.119500 sigma=4.852758
pair_coeff 2 83 0.000000e+00 0.000000e+00 6.317440e+04 # CA2-SC43 type=non-native eps=0.002390 sigma=4.154435
pair_coeff 2 84 -6.447689e+02 0.000000e+00 2.174304e+06 # CA2-CA44 type=native eps=0.047800 sigma=4.346680
pair_coeff 2 85 -5.791490e+02 0.000000e+00 1.754255e+06 # CA2-SC44 type=native eps=0.047800 sigma=4.269615
pair_coeff 2 86 0.000000e+00 0.000000e+00 4.009755e+04 # CA2-CA45 type=non-native eps=0.002390 sigma=4.000000
pair_coeff 2 87 0.000000e+00 0.000000e+00 4.009755e+04 # CA2-SC45 type=non-native eps=0.002390 sigma=4.000000
pair_coeff 2 88 0.000000e+00 0.000000e+00 4.009755e+04 # CA2-CA46 type=non-native eps=0.002390 sigma=4.000000
pair_coeff 2 89 0.000000e+00 0.000000e+00 2.286802e+04 # CA2-SC46 type=non-native eps=0.002390 sigma=3.817121
pair_coeff 2 90 0.000000e+00 0.000000e+00 4.009755e+04 # CA2-CA47 type=non-native eps=0.002390 sigma=4.000000
pair_coeff 2 91 0.000000e+00 0.000000e+00 3.442571e+03 # CA2-SC47 type=non-native eps=0.002390 sigma=3.259921
pair_coeff 2 92 0.000000e+00 0.000000e+00 4.009755e+04 # CA2-CA48 type=non-native eps=0.002390 sigma=4.000000
pair_coeff 2 93 0.000000e+00 0.000000e+00 4.009755e+04 # CA2-CA49 type=non-native eps=0.002390 sigma=4.000000
pair_coeff 2 94 0.000000e+00 0.000000e+00 2.286802e+04 # CA2-SC49 type=non-native eps=0.002390 sigma=3.817121
pair_coeff 2 95 0.000000e+00 0.000000e+00 4.009755e+04 # CA2-CA50 type=non-native eps=0.002390 sigma=4.000000
pair_coeff 2 96 0.000000e+00 0.000000e+00 4.009755e+04 # CA2-SC50 type=non-native eps=0.002390 sigma=4.000000
pair_coeff 2 97 0.000000e+00 0.000000e+00 4.009755e+04 # CA2-CA51 type=non-native eps=0.002390 sigma=4.000000
pair_coeff 2 98 0.000000e+00 0.000000e+00 1.737309e+05 # CA2-SC51 type=non-native eps=0.002390 sigma=4.519842
pair_coeff 2 99 0.000000e+00 0.000000e+00 4.009755e+04 # CA2-CA52 type=non-native eps=0.002390 sigma=4.000000
pair_coeff 2 100 0.000000e+00 0.000000e+00 1.293687e+05 # CA2-SC52 type=non-native eps=0.002390 sigma=4.410142
pair_coeff 2 101 0.000000e+00 0.000000e+00 4.009755e+04 # CA2-CA53 type=non-native eps=0.002390 sigma=4.000000
pair_coeff 2 102 0.000000e+00 0.000000e+00 4.009755e+04 # CA2-SC53 type=non-native eps=0.002390 sigma=4.000000
pair_coeff 2 103 0.000000e+00 0.000000e+00 4.009755e+04 # CA2-CA54 type=non-native eps=0.002390 sigma=4.000000
pair_coeff 2 104 0.000000e+00 0.000000e+00 4.009755e+04 # CA2-SC54 type=non-native eps=0.002390 sigma=4.000000
pair_coeff 2 105 0.000000e+00 0.000000e+00 4.009755e+04 # CA2-CA55 type=non-native eps=0.002390 sigma=4.000000
pair_coeff 2 106 0.000000e+00 0.000000e+00 2.286802e+04 # CA2-SC55 type=non-native eps=0.002390 sigma=3.817121
pair_coeff 2 107 0.000000e+00 0.000000e+00 4.009755e+04 # CA2-CA56 type=non-native eps=0.002390 sigma=4.000000
pair_coeff 2 108 0.000000e+00 0.000000e+00 6.317440e+04 # CA2-SC56 type=non-native eps=0.002390 sigma=4.154435
pair_coeff 2 109 0.000000e+00 0.000000e+00 4.009755e+04 # CA2-CA57 type=non-native eps=0.002390 sigma=4.000000
pair_coeff 2 110 0.000000e+00 0.000000e+00 4.009755e+04 # CA2-SC57 type=non-native eps=0.002390 sigma=4.000000
pair_coeff 2 111 0.000000e+00 0.000000e+00 4.009755e+04 # CA2-CA58 type=non-native eps=0.002390 sigma=4.000000
pair_coeff 2 112 0.000000e+00 0.000000e+00 4.009755e+04 # CA2-CA59 type=non-native eps=0.002390 sigma=4.000000
pair_coeff 2 113 0.000000e+00 0.000000e+00 1.293687e+05 # CA2-SC59 type=non-native eps=0.002390 sigma=4.410142
pair_coeff 2 114 0.000000e+00 0.000000e+00 4.009755e+04 # CA2-CA60 type=non-native eps=0.002390 sigma=4.000000
pair_coeff 2 115 0.000000e+00 0.000000e+00 2.286802e+04 # CA2-SC60 type=non-native eps=0.002390 sigma=3.817121
pair_coeff 2 116 0.000000e+00 0.000000e+00 4.009755e+04 # CA2-CA61 type=non-native eps=0.002390 sigma=4.000000
pair_coeff 2 117 0.000000e+00 0.000000e+00 2.286802e+04 # CA2-SC61 type=non-native eps=0.002390 sigma=3.817121
pair_coeff 2 118 0.000000e+00 0.000000e+00 4.009755e+04 # CA2-CA62 type=non-native eps=0.002390 sigma=4.000000
pair_coeff 2 119 0.000000e+00 0.000000e+00 1.085818e+04 # CA2-SC62 type=non-native eps=0.002390 sigma=3.587401
pair_coeff 2 120 0.000000e+00 0.000000e+00 4.009755e+04 # CA2-CA63 type=non-native eps=0.002390 sigma=4.000000
pair_coeff 2 121 0.000000e+00 0.000000e+00 2.286802e+04 # CA2-SC63 type=non-native eps=0.002390 sigma=3.817121
pair_coeff 2 122 0.000000e+00 0.000000e+00 4.009755e+04 # CA2-CA64 type=non-native eps=0.002390 sigma=4.000000
pair_coeff 2 123 0.000000e+00 0.000000e+00 6.317440e+04 # CA2-SC64 type=non-native eps=0.002390 sigma=4.154435
pair_coeff 2 124 0.000000e+00 0.000000e+00 4.009755e+04 # CA2-CA65 type=non-native eps=0.002390 sigma=4.000000
pair_coeff 2 125 0.000000e+00 0.000000e+00 2.286802e+04 # CA2-SC65 type=non-native eps=0.002390 sigma=3.817121
pair_coeff 2 126 0.000000e+00 0.000000e+00 4.009755e+04 # CA2-CA66 type=non-native eps=0.002390 sigma=4.000000
pair_coeff 2 127 0.000000e+00 0.000000e+00 9.272377e+04 # CA2-SC66 type=non-native eps=0.002390 sigma=4.289428
pair_coeff 2 128 0.000000e+00 0.000000e+00 4.009755e+04 # CA2-CA67 type=non-native eps=0.002390 sigma=4.000000
pair_coeff 2 129 0.000000e+00 0.000000e+00 4.009755e+04 # CA2-SC67 type=non-native eps=0.002390 sigma=4.000000
pair_coeff 2 130 0.000000e+00 0.000000e+00 4.009755e+04 # CA2-CA68 type=non-native eps=0.002390 sigma=4.000000
pair_coeff 2 131 0.000000e+00 0.000000e+00 4.009755e+04 # CA2-SC68 type=non-native eps=0.002390 sigma=4.000000
pair_coeff 2 132 0.000000e+00 0.000000e+00 4.009755e+04 # CA2-CA69 type=non-native eps=0.002390 sigma=4.000000
pair_coeff 2 133 0.000000e+00 0.000000e+00 4.009755e+04 # CA2-SC69 type=non-native eps=0.002390 sigma=4.000000
pair_coeff 2 134 0.000000e+00 0.000000e+00 4.009755e+04 # CA2-CA70 type=non-native eps=0.002390 sigma=4.000000
pair_coeff 2 135 0.000000e+00 0.000000e+00 1.085818e+04 # CA2-SC70 type=non-native eps=0.002390 sigma=3.587401
pair_coeff 2 136 0.000000e+00 0.000000e+00 4.009755e+04 # CA2-CA71 type=non-native eps=0.002390 sigma=4.000000
pair_coeff 2 137 0.000000e+00 0.000000e+00 2.286802e+04 # CA2-SC71 type=non-native eps=0.002390 sigma=3.817121
pair_coeff 2 138 0.000000e+00 0.000000e+00 4.009755e+04 # CA2-CA72 type=non-native eps=0.002390 sigma=4.000000
pair_coeff 2 139 0.000000e+00 0.000000e+00 1.293687e+05 # CA2-SC72 type=non-native eps=0.002390 sigma=4.410142
pair_coeff 2 140 0.000000e+00 0.000000e+00 4.009755e+04 # CA2-CA73 type=non-native eps=0.002390 sigma=4.000000
pair_coeff 2 141 0.000000e+00 0.000000e+00 9.272377e+04 # CA2-SC73 type=non-native eps=0.002390 sigma=4.289428
pair_coeff 2 142 0.000000e+00 0.000000e+00 4.009755e+04 # CA2-CA74 type=non-native eps=0.002390 sigma=4.000000
pair_coeff 2 143 0.000000e+00 0.000000e+00 4.009755e+04 # CA2-SC74 type=non-native eps=0.002390 sigma=4.000000
pair_coeff 2 144 0.000000e+00 0.000000e+00 4.009755e+04 # CA2-CA75 type=non-native eps=0.002390 sigma=4.000000
pair_coeff 2 145 0.000000e+00 0.000000e+00 6.317440e+04 # CA2-SC75 type=non-native eps=0.002390 sigma=4.154435
pair_coeff 2 146 0.000000e+00 0.000000e+00 4.009755e+04 # CA2-CA76 type=non-native eps=0.002390 sigma=4.000000
pair_coeff 2 147 0.000000e+00 0.000000e+00 2.286802e+04 # CA2-SC76 type=non-native eps=0.002390 sigma=3.817121
pair_coeff 2 148 0.000000e+00 0.000000e+00 4.009755e+04 # CA2-CA77 type=non-native eps=0.002390 sigma=4.000000
pair_coeff 2 149 0.000000e+00 0.000000e+00 9.272377e+04 # CA2-SC77 type=non-native eps=0.002390 sigma=4.289428
pair_coeff 2 150 0.000000e+00 0.000000e+00 4.009755e+04 # CA2-CA78 type=non-native eps=0.002390 sigma=4.000000
pair_coeff 2 151 0.000000e+00 0.000000e+00 4.009755e+04 # CA2-SC78 type=non-native eps=0.002390 sigma=4.000000
pair_coeff 2 152 0.000000e+00 0.000000e+00 4.009755e+04 # CA2-CA79 type=non-native eps=0.002390 sigma=4.000000
pair_coeff 2 153 0.000000e+00 0.000000e+00 6.317440e+04 # CA2-SC79 type=non-native eps=0.002390 sigma=4.154435
pair_coeff 2 154 0.000000e+00 0.000000e+00 4.009755e+04 # CA2-CA80 type=non-native eps=0.002390 sigma=4.000000
pair_coeff 2 155 0.000000e+00 0.000000e+00 1.293687e+05 # CA2-SC80 type=non-native eps=0.002390 sigma=4.410142
pair_coeff 2 156 0.000000e+00 0.000000e+00 4.009755e+04 # CA2-CA81 type=non-native eps=0.002390 sigma=4.000000
pair_coeff 2 157 0.000000e+00 0.000000e+00 6.317440e+04 # CA2-SC81 type=non-native eps=0.002390 sigma=4.154435
pair_coeff 2 158 0.000000e+00 0.000000e+00 4.009755e+04 # CA2-CA82 type=non-native eps=0.002390 sigma=4.000000
pair_coeff 2 159 0.000000e+00 0.000000e+00 3.442571e+03 # CA2-SC82 type=non-native eps=0.002390 sigma=3.259921
pair_coeff 2 160 0.000000e+00 0.000000e+00 4.009755e+04 # CA2-CA83 type=non-native eps=0.002390 sigma=4.000000
pair_coeff 2 161 0.000000e+00 0.000000e+00 1.293687e+05 # CA2-SC83 type=non-native eps=0.002390 sigma=4.410142
pair_coeff 2 162 0.000000e+00 0.000000e+00 4.009755e+04 # CA2-CA84 type=non-native eps=0.002390 sigma=4.000000
pair_coeff 2 163 0.000000e+00 0.000000e+00 1.085818e+04 # CA2-SC84 type=non-native eps=0.002390 sigma=3.587401
pair_coeff 2 164 0.000000e+00 0.000000e+00 4.009755e+04 # CA2-CA85 type=non-native eps=0.002390 sigma=4.000000
pair_coeff 2 165 0.000000e+00 0.000000e+00 1.085818e+04 # CA2-SC85 type=non-native eps=0.002390 sigma=3.587401
pair_coeff 2 166 0.000000e+00 0.000000e+00 4.009755e+04 # CA2-CA86 type=non-native eps=0.002390 sigma=4.000000
pair_coeff 2 167 0.000000e+00 0.000000e+00 1.293687e+05 # CA2-SC86 type=non-native eps=0.002390 sigma=4.410142
pair_coeff 2 168 0.000000e+00 0.000000e+00 4.009755e+04 # CA2-CA87 type=non-native eps=0.002390 sigma=4.000000
pair_coeff 2 169 0.000000e+00 0.000000e+00 6.317440e+04 # CA2-SC87 type=non-native eps=0.002390 sigma=4.154435
pair_coeff 2 170 0.000000e+00 0.000000e+00 4.009755e+04 # CA2-CA88 type=non-native eps=0.002390 sigma=4.000000
pair_coeff 2 171 0.000000e+00 0.000000e+00 4.009755e+04 # CA2-SC88 type=non-native eps=0.002390 sigma=4.000000
pair_coeff 2 172 0.000000e+00 0.000000e+00 4.009755e+04 # CA2-CA89 type=non-native eps=0.002390 sigma=4.000000
pair_coeff 2 173 0.000000e+00 0.000000e+00 1.737309e+05 # CA2-SC89 type=non-native eps=0.002390 sigma=4.519842
pair_coeff 2 174 0.000000e+00 0.000000e+00 4.009755e+04 # CA2-CA90 type=non-native eps=0.002390 sigma=4.000000
pair_coeff 2 175 0.000000e+00 0.000000e+00 3.442571e+03 # CA2-SC90 type=non-native eps=0.002390 sigma=3.259921
pair_coeff 2 176 0.000000e+00 0.000000e+00 4.009755e+04 # CA2-CA91 type=non-native eps=0.002390 sigma=4.000000
pair_coeff 2 177 0.000000e+00 0.000000e+00 2.286802e+04 # CA2-SC91 type=non-native eps=0.002390 sigma=3.817121
pair_coeff 2 178 0.000000e+00 0.000000e+00 4.009755e+04 # CA2-CA92 type=non-native eps=0.002390 sigma=4.000000
pair_coeff 2 179 0.000000e+00 0.000000e+00 2.286802e+04 # CA2-SC92 type=non-native eps=0.002390 sigma=3.817121
pair_coeff 2 180 0.000000e+00 0.000000e+00 4.009755e+04 # CA2-CA93 type=non-native eps=0.002390 sigma=4.000000
pair_coeff 2 181 0.000000e+00 0.000000e+00 2.880942e+05 # CA2-SC93 type=non-native eps=0.002390 sigma=4.714418
pair_coeff 2 182 0.000000e+00 0.000000e+00 4.009755e+04 # CA2-CA94 type=non-native eps=0.002390 sigma=4.000000
pair_coeff 2 183 0.000000e+00 0.000000e+00 6.317440e+04 # CA2-SC94 type=non-native eps=0.002390 sigma=4.154435
pair_coeff 2 184 0.000000e+00 0.000000e+00 4.009755e+04 # CA2-CA95 type=non-native eps=0.002390 sigma=4.000000
pair_coeff 2 185 0.000000e+00 0.000000e+00 4.009755e+04 # CA2-CA96 type=non-native eps=0.002390 sigma=4.000000
pair_coeff 2 186 0.000000e+00 0.000000e+00 2.286802e+04 # CA2-SC96 type=non-native eps=0.002390 sigma=3.817121
pair_coeff 2 187 0.000000e+00 0.000000e+00 4.009755e+04 # CA2-CA97 type=non-native eps=0.002390 sigma=4.000000
pair_coeff 2 188 0.000000e+00 0.000000e+00 4.009755e+04 # CA2-SC97 type=non-native eps=0.002390 sigma=4.000000
pair_coeff 2 189 0.000000e+00 0.000000e+00 4.009755e+04 # CA2-CA98 type=non-native eps=0.002390 sigma=4.000000
pair_coeff 2 190 0.000000e+00 0.000000e+00 2.286802e+04 # CA2-SC98 type=non-native eps=0.002390 sigma=3.817121
pair_coeff 2 191 0.000000e+00 0.000000e+00 4.009755e+04 # CA2-CA99 type=non-native eps=0.002390 sigma=4.000000
pair_coeff 2 192 0.000000e+00 0.000000e+00 4.009755e+04 # CA2-SC99 type=non-native eps=0.002390 sigma=4.000000
pair_coeff 2 193 0.000000e+00 0.000000e+00 4.009755e+04 # CA2-CA100 type=non-native eps=0.002390 sigma=4.000000
pair_coeff 2 194 0.000000e+00 0.000000e+00 1.085818e+04 # CA2-SC100 type=non-native eps=0.002390 sigma=3.587401
pair_coeff 2 195 0.000000e+00 0.000000e+00 4.009755e+04 # CA2-CA101 type=non-native eps=0.002390 sigma=4.000000
pair_coeff 2 196 0.000000e+00 0.000000e+00 6.317440e+04 # CA2-SC101 type=non-native eps=0.002390 sigma=4.154435
pair_coeff 2 197 0.000000e+00 0.000000e+00 4.009755e+04 # CA2-CA102 type=non-native eps=0.002390 sigma=4.000000
pair_coeff 2 198 0.000000e+00 0.000000e+00 1.085818e+04 # CA2-SC102 type=non-native eps=0.002390 sigma=3.587401
pair_coeff 2 199 0.000000e+00 0.000000e+00 4.009755e+04 # CA2-CA103 type=non-native eps=0.002390 sigma=4.000000
pair_coeff 2 200 0.000000e+00 0.000000e+00 2.286802e+04 # CA2-SC103 type=non-native eps=0.002390 sigma=3.817121
pair_coeff 2 201 0.000000e+00 0.000000e+00 4.009755e+04 # CA2-CA104 type=non-native eps=0.002390 sigma=4.000000
pair_coeff 2 202 0.000000e+00 0.000000e+00 1.085818e+04 # CA2-SC104 type=non-native eps=0.002390 sigma=3.587401
pair_coeff 2 203 0.000000e+00 0.000000e+00 4.009755e+04 # CA2-CA105 type=non-native eps=0.002390 sigma=4.000000
pair_coeff 2 204 0.000000e+00 0.000000e+00 6.317440e+04 # CA2-SC105 type=non-native eps=0.002390 sigma=4.154435
pair_coeff 2 205 0.000000e+00 0.000000e+00 4.009755e+04 # CA2-CA106 type=non-native eps=0.002390 sigma=4.000000
pair_coeff 2 206 0.000000e+00 0.000000e+00 4.009755e+04 # CA2-SC106 type=non-native eps=0.002390 sigma=4.000000
pair_coeff 2 207 0.000000e+00 0.000000e+00 4.009755e+04 # CA2-CA107 type=non-native eps=0.002390 sigma=4.000000
pair_coeff 2 208 0.000000e+00 0.000000e+00 1.085818e+04 # CA2-SC107 type=non-native eps=0.002390 sigma=3.587401
pair_coeff 3 3 0.000000e+00 0.000000e+00 1.268711e+04 # SC2-SC2 type=non-native eps=0.002390 sigma=3.634241
pair_coeff 3 4 0.000000e+00 0.000000e+00 2.286802e+04 # SC2-CA3 type=non-native eps=0.002390 sigma=3.817121
pair_coeff 3 5 0.000000e+00 0.000000e+00 2.286802e+04 # SC2-SC3 type=non-native eps=0.002390 sigma=3.817121
pair_coeff 3 6 0.000000e+00 0.000000e+00 2.286802e+04 # SC2-CA4 type=non-native eps=0.002390 sigma=3.817121
pair_coeff 3 7 0.000000e+00 0.000000e+00 2.286802e+04 # SC2-SC4 type=non-native eps=0.002390 sigma=3.817121
pair_coeff 3 8 0.000000e+00 0.000000e+00 2.286802e+04 # SC2-CA5 type=non-native eps=0.002390 sigma=3.817121
pair_coeff 3 9 0.000000e+00 0.000000e+00 1.721862e+03 # SC2-SC5 type=non-native eps=0.002390 sigma=3.077042
pair_coeff 3 10 0.000000e+00 0.000000e+00 2.286802e+04 # SC2-CA6 type=non-native eps=0.002390 sigma=3.817121
pair_coeff 3 11 0.000000e+00 0.000000e+00 5.795236e+03 # SC2-SC6 type=non-native eps=0.002390 sigma=3.404522
pair_coeff 3 12 0.000000e+00 0.000000e+00 2.286802e+04 # SC2-CA7 type=non-native eps=0.002390 sigma=3.817121
pair_coeff 3 13 0.000000e+00 0.000000e+00 1.268711e+04 # SC2-SC7 type=non-native eps=0.002390 sigma=3.634241
pair_coeff 3 14 0.000000e+00 0.000000e+00 2.286802e+04 # SC2-CA8 type=non-native eps=0.002390 sigma=3.817121
pair_coeff 3 15 0.000000e+00 0.000000e+00 3.680656e+04 # SC2-SC8 type=non-native eps=0.002390 sigma=3.971555
pair_coeff 3 16 0.000000e+00 0.000000e+00 2.286802e+04 # SC2-CA9 type=non-native eps=0.002390 sigma=3.817121
pair_coeff 3 17 0.000000e+00 0.000000e+00 3.680656e+04 # SC2-SC9 type=non-native eps=0.002390 sigma=3.971555
pair_coeff 3 18 0.000000e+00 0.000000e+00 2.286802e+04 # SC2-CA10 type=non-native eps=0.002390 sigma=3.817121
pair_coeff 3 19 0.000000e+00 0.000000e+00 3.680656e+04 # SC2-SC10 type=non-native eps=0.002390 sigma=3.971555
pair_coeff 3 20 0.000000e+00 0.000000e+00 2.286802e+04 # SC2-CA11 type=non-native eps=0.002390 sigma=3.817121
pair_coeff 3 21 0.000000e+00 0.000000e+00 2.286802e+04 # SC2-CA12 type=non-native eps=0.002390 sigma=3.817121
pair_coeff 3 22 0.000000e+00 0.000000e+00 1.268711e+04 # SC2-SC12 type=non-native eps=0.002390 sigma=3.634241
pair_coeff 3 23 0.000000e+00 0.000000e+00 2.286802e+04 # SC2-CA13 type=non-native eps=0.002390 sigma=3.817121
pair_coeff 3 24 0.000000e+00 0.000000e+00 7.782318e+04 # SC2-SC13 type=non-native eps=0.002390 sigma=4.227263
pair_coeff 3 25 0.000000e+00 0.000000e+00 2.286802e+04 # SC2-CA14 type=non-native eps=0.002390 sigma=3.817121
pair_coeff 3 26 0.000000e+00 0.000000e+00 7.782318e+04 # SC2-SC14 type=non-native eps=0.002390 sigma=4.227263
pair_coeff 3 27 0.000000e+00 0.000000e+00 2.286802e+04 # SC2-CA15 type=non-native eps=0.002390 sigma=3.817121
pair_coeff 3 28 0.000000e+00 0.000000e+00 1.721862e+03 # SC2-SC15 type=non-native eps=0.002390 sigma=3.077042
pair_coeff 3 29 0.000000e+00 0.000000e+00 2.286802e+04 # SC2-CA16 type=non-native eps=0.002390 sigma=3.817121
pair_coeff 3 30 0.000000e+00 0.000000e+00 2.286802e+04 # SC2-SC16 type=non-native eps=0.002390 sigma=3.817121
pair_coeff 3 31 0.000000e+00 0.000000e+00 2.286802e+04 # SC2-CA17 type=non-native eps=0.002390 sigma=3.817121
pair_coeff 3 32 0.000000e+00 0.000000e+00 2.286802e+04 # SC2-SC17 type=non-native eps=0.002390 sigma=3.817121
pair_coeff 3 33 0.000000e+00 0.000000e+00 2.286802e+04 # SC2-CA18 type=non-native eps=0.002390 sigma=3.817121
pair_coeff 3 34 0.000000e+00 0.000000e+00 7.782318e+04 # SC2-SC18 type=non-native eps=0.002390 sigma=4.227263
pair_coeff 3 35 0.000000e+00 0.000000e+00 2.286802e+04 # SC2-CA19 type=non-native eps=0.002390 sigma=3.817121
pair_coeff 3 36 0.000000e+00 0.000000e+00 1.721862e+03 # SC2-SC19 type=non-native eps=0.002390 sigma=3.077042
pair_coeff 3 37 0.000000e+00 0.000000e+00 2.286802e+04 # SC2-CA20 type=non-native eps=0.002390 sigma=3.817121
pair_coeff 3 38 0.000000e+00 0.000000e+00 1.268711e+04 # SC2-SC20 type=non-native eps=0.002390 sigma=3.634241
pair_coeff 3 39 0.000000e+00 0.000000e+00 2.286802e+04 # SC2-CA21 type=non-native eps=0.002390 sigma=3.817121
pair_coeff 3 40 0.000000e+00 0.000000e+00 2.286802e+04 # SC2-CA22 type=non-native eps=0.002390 sigma=3.817121
pair_coeff 3 41 0.000000e+00 0.000000e+00 3.680656e+04 # SC2-SC22 type=non-native eps=0.002390 sigma=3.971555
pair_coeff 3 42 0.000000e+00 0.000000e+00 2.286802e+04 # SC2-CA23 type=non-native eps=0.002390 sigma=3.817121
pair_coeff 3 43 0.000000e+00 0.000000e+00 1.058342e+05 # SC2-SC23 type=non-native eps=0.002390 sigma=4.336963
pair_coeff 3 44 0.000000e+00 0.000000e+00 2.286802e+04 # SC2-CA24 type=non-native eps=0.002390 sigma=3.817121
pair_coeff 3 45 0.000000e+00 0.000000e+00 2.286802e+04 # SC2-SC24 type=non-native eps=0.002390 sigma=3.817121
pair_coeff 3 46 0.000000e+00 0.000000e+00 2.286802e+04 # SC2-CA25 type=non-native eps=0.002390 sigma=3.817121
pair_coeff 3 47 0.000000e+00 0.000000e+00 3.680656e+04 # SC2-SC25 type=non-native eps=0.002390 sigma=3.971555
pair_coeff 3 48 0.000000e+00 0.000000e+00 2.286802e+04 # SC2-CA26 type=non-native eps=0.002390 sigma=3.817121
pair_coeff 3 49 0.000000e+00 0.000000e+00 1.721862e+03 # SC2-SC26 type=non-native eps=0.002390 sigma=3.077042
pair_coeff 3 50 0.000000e+00 0.000000e+00 2.286802e+04 # SC2-CA27 type=non-native eps=0.002390 sigma=3.817121
pair_coeff 3 51 0.000000e+00 0.000000e+00 5.795236e+03 # SC2-SC27 type=non-native eps=0.002390 sigma=3.404522
pair_coeff 3 52 0.000000e+00 0.000000e+00 2.286802e+04 # SC2-CA28 type=non-native eps=0.002390 sigma=3.817121
pair_coeff 3 53 0.000000e+00 0.000000e+00 2.286802e+04 # SC2-SC28 type=non-native eps=0.002390 sigma=3.817121
pair_coeff 3 54 0.000000e+00 0.000000e+00 2.286802e+04 # SC2-CA29 type=non-native eps=0.002390 sigma=3.817121
pair_coeff 3 55 0.000000e+00 0.000000e+00 2.286802e+04 # SC2-SC29 type=non-native eps=0.002390 sigma=3.817121
pair_coeff 3 56 0.000000e+00 0.000000e+00 2.286802e+04 # SC2-CA30 type=non-native eps=0.002390 sigma=3.817121
pair_coeff 3 57 0.000000e+00 0.000000e+00 2.286802e+04 # SC2-SC30 type=non-native eps=0.002390 sigma=3.817121
pair_coeff 3 58 0.000000e+00 0.000000e+00 2.286802e+04 # SC2-CA31 type=non-native eps=0.002390 sigma=3.817121
pair_coeff 3 59 0.000000e+00 0.000000e+00 1.058342e+05 # SC2-SC31 type=non-native eps=0.002390 sigma=4.336963
pair_coeff 3 60 0.000000e+00 0.000000e+00 2.286802e+04 # SC2-CA32 type=non-native eps=0.002390 sigma=3.817121
pair_coeff 3 61 0.000000e+00 0.000000e+00 5.496954e+04 # SC2-SC32 type=non-native eps=0.002390 sigma=4.106549
pair_coeff 3 62 0.000000e+00 0.000000e+00 2.286802e+04 # SC2-CA33 type=non-native eps=0.002390 sigma=3.817121
pair_coeff 3 63 0.000000e+00 0.000000e+00 5.795236e+03 # SC2-SC33 type=non-native eps=0.002390 sigma=3.404522
pair_coeff 3 64 0.000000e+00 0.000000e+00 2.286802e+04 # SC2-CA34 type=non-native eps=0.002390 sigma=3.817121
pair_coeff 3 65 0.000000e+00 0.000000e+00 7.782318e+04 # SC2-SC34 type=non-native eps=0.002390 sigma=4.227263
pair_coeff 3 66 0.000000e+00 0.000000e+00 2.286802e+04 # SC2-CA35 type=non-native eps=0.002390 sigma=3.817121
pair_coeff 3 67 0.000000e+00 0.000000e+00 1.721862e+03 # SC2-SC35 type=non-native eps=0.002390 sigma=3.077042
pair_coeff 3 68 0.000000e+00 0.000000e+00 2.286802e+04 # SC2-CA36 type=non-native eps=0.002390 sigma=3.817121
pair_coeff 3 69 0.000000e+00 0.000000e+00 2.286802e+04 # SC2-SC36 type=non-native eps=0.002390 sigma=3.817121
pair_coeff 3 70 0.000000e+00 0.000000e+00 2.286802e+04 # SC2-CA37 type=non-native eps=0.002390 sigma=3.817121
pair_coeff 3 71 0.000000e+00 0.000000e+00 3.680656e+04 # SC2-SC37 type=non-native eps=0.002390 sigma=3.971555
pair_coeff 3 72 0.000000e+00 0.000000e+00 2.286802e+04 # SC2-CA38 type=non-native eps=0.002390 sigma=3.817121
pair_coeff 3 73 0.000000e+00 0.000000e+00 1.268711e+04 # SC2-SC38 type=non-native eps=0.002390 sigma=3.634241
pair_coeff 3 74 0.000000e+00 0.000000e+00 2.286802e+04 # SC2-CA39 type=non-native eps=0.002390 sigma=3.817121
pair_coeff 3 75 0.000000e+00 0.000000e+00 1.268711e+04 # SC2-SC39 type=non-native eps=0.002390 sigma=3.634241
pair_coeff 3 76 0.000000e+00 0.000000e+00 2.286802e+04 # SC2-CA40 type=non-native eps=0.002390 sigma=3.817121
pair_coeff 3 77 0.000000e+00 0.000000e+00 7.782318e+04 # SC2-SC40 type=non-native eps=0.002390 sigma=4.227263
pair_coeff 3 78 0.000000e+00 0.000000e+00 2.286802e+04 # SC2-CA41 type=non-native eps=0.002390 sigma=3.817121
pair_coeff 3 79 0.000000e+00 0.000000e+00 1.721862e+03 # SC2-SC41 type=non-native eps=0.002390 sigma=3.077042
pair_coeff 3 80 0.000000e+00 0.000000e+00 2.286802e+04 # SC2-CA42 type=non-native eps=0.002390 sigma=3.817121
pair_coeff 3 81 -4.565032e+03 0.000000e+00 3.269798e+07 # SC2-SC42 type=native eps=0.159333 sigma=4.928157
pair_coeff 3 82 -8.644021e+03 0.000000e+00 1.563161e+08 # SC2-CA43 type=native eps=0.119500 sigma=5.750686
pair_coeff 3 83 0.000000e+00 0.000000e+00 3.680656e+04 # SC2-SC43 type=non-native eps=0.002390 sigma=3.971555
pair_coeff 3 84 0.000000e+00 0.000000e+00 2.286802e+04 # SC2-CA44 type=non-native eps=0.002390 sigma=3.817121
pair_coeff 3 85 -2.418568e+03 0.000000e+00 1.019782e+07 # SC2-SC44 type=native eps=0.143400 sigma=4.511592
pair_coeff 3 86 0.000000e+00 0.000000e+00 2.286802e+04 # SC2-CA45 type=non-native eps=0.002390 sigma=3.817121
pair_coeff 3 87 0.000000e+00 0.000000e+00 2.286802e+04 # SC2-SC45 type=non-native eps=0.002390 sigma=3.817121
pair_coeff 3 88 0.000000e+00 0.000000e+00 2.286802e+04 # SC2-CA46 type=non-native eps=0.002390 sigma=3.817121
pair_coeff 3 89 0.000000e+00 0.000000e+00 1.268711e+04 # SC2-SC46 type=non-native eps=0.002390 sigma=3.634241
pair_coeff 3 90 0.000000e+00 0.000000e+00 2.286802e+04 # SC2-CA47 type=non-native eps=0.002390 sigma=3.817121
pair_coeff 3 91 0.000000e+00 0.000000e+00 1.721862e+03 # SC2-SC47 type=non-native eps=0.002390 sigma=3.077042
pair_coeff 3 92 0.000000e+00 0.000000e+00 2.286802e+04 # SC2-CA48 type=non-native eps=0.002390 sigma=3.817121
pair_coeff 3 93 0.000000e+00 0.000000e+00 2.286802e+04 # SC2-CA49 type=non-native eps=0.002390 sigma=3.817121
pair_coeff 3 94 0.000000e+00 0.000000e+00 1.268711e+04 # SC2-SC49 type=non-native eps=0.002390 sigma=3.634241
pair_coeff 3 95 0.000000e+00 0.000000e+00 2.286802e+04 # SC2-CA50 type=non-native eps=0.002390 sigma=3.817121
pair_coeff 3 96 0.000000e+00 0.000000e+00 2.286802e+04 # SC2-SC50 type=non-native eps=0.002390 sigma=3.817121
pair_coeff 3 97 0.000000e+00 0.000000e+00 2.286802e+04 # SC2-CA51 type=non-native eps=0.002390 sigma=3.817121
pair_coeff 3 98 0.000000e+00 0.000000e+00 1.058342e+05 # SC2-SC51 type=non-native eps=0.002390 sigma=4.336963
pair_coeff 3 99 0.000000e+00 0.000000e+00 2.286802e+04 # SC2-CA52 type=non-native eps=0.002390 sigma=3.817121
pair_coeff 3 100 -7.908483e+03 0.000000e+00 6.542270e+07 # SC2-SC52 type=native eps=0.239000 sigma=5.047902
pair_coeff 3 101 0.000000e+00 0.000000e+00 2.286802e+04 # SC2-CA53 type=non-native eps=0.002390 sigma=3.817121
pair_coeff 3 102 0.000000e+00 0.000000e+00 2.286802e+04 # SC2-SC53 type=non-native eps=0.002390 sigma=3.817121
pair_coeff 3 103 0.000000e+00 0.000000e+00 2.286802e+04 # SC2-CA54 type=non-native eps=0.002390 sigma=3.817121
pair_coeff 3 104 0.000000e+00 0.000000e+00 2.286802e+04 # SC2-SC54 type=non-native eps=0.002390 sigma=3.817121
pair_coeff 3 105 0.000000e+00 0.000000e+00 2.286802e+04 # SC2-CA55 type=non-native eps=0.002390 sigma=3.817121
pair_coeff 3 106 0.000000e+00 0.000000e+00 1.268711e+04 # SC2-SC55 type=non-native eps=0.002390 sigma=3.634241
pair_coeff 3 107 0.000000e+00 0.000000e+00 2.286802e+04 # SC2-CA56 type=non-native eps=0.002390 sigma=3.817121
pair_coeff 3 108 0.000000e+00 0.000000e+00 3.680656e+04 # SC2-SC56 type=non-native eps=0.002390 sigma=3.971555
pair_coeff 3 109 0.000000e+00 0.000000e+00 2.286802e+04 # SC2-CA57 type=non-native eps=0.002390 sigma=3.817121
pair_coeff 3 110 0.000000e+00 0.000000e+00 2.286802e+04 # SC2-SC57 type=non-native eps=0.002390 sigma=3.817121
pair_coeff 3 111 0.000000e+00 0.000000e+00 2.286802e+04 # SC2-CA58 type=non-native eps=0.002390 sigma=3.817121
pair_coeff 3 112 0.000000e+00 0.000000e+00 2.286802e+04 # SC2-CA59 type=non-native eps=0.002390 sigma=3.817121
pair_coeff 3 113 0.000000e+00 0.000000e+00 7.782318e+04 # SC2-SC59 type=non-native eps=0.002390 sigma=4.227263
pair_coeff 3 114 0.000000e+00 0.000000e+00 2.286802e+04 # SC2-CA60 type=non-native eps=0.002390 sigma=3.817121
pair_coeff 3 115 0.000000e+00 0.000000e+00 1.268711e+04 # SC2-SC60 type=non-native eps=0.002390 sigma=3.634241
pair_coeff 3 116 0.000000e+00 0.000000e+00 2.286802e+04 # SC2-CA61 type=non-native eps=0.002390 sigma=3.817121
pair_coeff 3 117 0.000000e+00 0.000000e+00 1.268711e+04 # SC2-SC61 type=non-native eps=0.002390 sigma=3.634241
pair_coeff 3 118 0.000000e+00 0.000000e+00 2.286802e+04 # SC2-CA62 type=non-native eps=0.002390 sigma=3.817121
pair_coeff 3 119 0.000000e+00 0.000000e+00 5.795236e+03 # SC2-SC62 type=non-native eps=0.002390 sigma=3.404522
pair_coeff 3 120 0.000000e+00 0.000000e+00 2.286802e+04 # SC2-CA63 type=non-native eps=0.002390 sigma=3.817121
pair_coeff 3 121 0.000000e+00 0.000000e+00 1.268711e+04 # SC2-SC63 type=non-native eps=0.002390 sigma=3.634241
pair_coeff 3 122 0.000000e+00 0.000000e+00 2.286802e+04 # SC2-CA64 type=non-native eps=0.002390 sigma=3.817121
pair_coeff 3 123 0.000000e+00 0.000000e+00 3.680656e+04 # SC2-SC64 type=non-native eps=0.002390 sigma=3.971555
pair_coeff 3 124 0.000000e+00 0.000000e+00 2.286802e+04 # SC2-CA65 type=non-native eps=0.002390 sigma=3.817121
pair_coeff 3 125 0.000000e+00 0.000000e+00 1.268711e+04 # SC2-SC65 type=non-native eps=0.002390 sigma=3.634241
pair_coeff 3 126 0.000000e+00 0.000000e+00 2.286802e+04 # SC2-CA66 type=non-native eps=0.002390 sigma=3.817121
pair_coeff 3 127 0.000000e+00 0.000000e+00 5.496954e+04 # SC2-SC66 type=non-native eps=0.002390 sigma=4.106549
pair_coeff 3 128 0.000000e+00 0.000000e+00 2.286802e+04 # SC2-CA67 type=non-native eps=0.002390 sigma=3.817121
pair_coeff 3 129 0.000000e+00 0.000000e+00 2.286802e+04 # SC2-SC67 type=non-native eps=0.002390 sigma=3.817121
pair_coeff 3 130 0.000000e+00 0.000000e+00 2.286802e+04 # SC2-CA68 type=non-native eps=0.002390 sigma=3.817121
pair_coeff 3 131 0.000000e+00 0.000000e+00 2.286802e+04 # SC2-SC68 type=non-native eps=0.002390 sigma=3.817121
pair_coeff 3 132 0.000000e+00 0.000000e+00 2.286802e+04 # SC2-CA69 type=non-native eps=0.002390 sigma=3.817121
pair_coeff 3 133 0.000000e+00 0.000000e+00 2.286802e+04 # SC2-SC69 type=non-native eps=0.002390 sigma=3.817121
pair_coeff 3 134 0.000000e+00 0.000000e+00 2.286802e+04 # SC2-CA70 type=non-native eps=0.002390 sigma=3.817121
pair_coeff 3 135 0.000000e+00 0.000000e+00 5.795236e+03 # SC2-SC70 type=non-native eps=0.002390 sigma=3.404522
pair_coeff 3 136 0.000000e+00 0.000000e+00 2.286802e+04 # SC2-CA71 type=non-native eps=0.002390 sigma=3.817121
pair_coeff 3 137 0.000000e+00 0.000000e+00 1.268711e+04 # SC2-SC71 type=non-native eps=0.002390 sigma=3.634241
pair_coeff 3 138 0.000000e+00 0.000000e+00 2.286802e+04 # SC2-CA72 type=non-native eps=0.002390 sigma=3.817121
pair_coeff 3 139 0.000000e+00 0.000000e+00 7.782318e+04 # SC2-SC72 type=non-native eps=0.002390 sigma=4.227263
pair_coeff 3 140 0.000000e+00 0.000000e+00 2.286802e+04 # SC2-CA73 type=non-native eps=0.002390 sigma=3.817121
pair_coeff 3 141 0.000000e+00 0.000000e+00 5.496954e+04 # SC2-SC73 type=non-native eps=0.002390 sigma=4.106549
pair_coeff 3 142 0.000000e+00 0.000000e+00 2.286802e+04 # SC2-CA74 type=non-native eps=0.002390 sigma=3.817121
pair_coeff 3 143 0.000000e+00 0.000000e+00 2.286802e+04 # SC2-SC74 type=non-native eps=0.002390 sigma=3.817121
pair_coeff 3 144 0.000000e+00 0.000000e+00 2.286802e+04 # SC2-CA75 type=non-native eps=0.002390 sigma=3.817121
pair_coeff 3 145 0.000000e+00 0.000000e+00 3.680656e+04 # SC2-SC75 type=non-native eps=0.002390 sigma=3.971555
pair_coeff 3 146 0.000000e+00 0.000000e+00 2.286802e+04 # SC2-CA76 type=non-native eps=0.002390 sigma=3.817121
pair_coeff 3 147 0.000000e+00 0.000000e+00 1.268711e+04 # SC2-SC76 type=non-native eps=0.002390 sigma=3.634241
pair_coeff 3 148 0.000000e+00 0.000000e+00 2.286802e+04 # SC2-CA77 type=non-native eps=0.002390 sigma=3.817121
pair_coeff 3 149 0.000000e+00 0.000000e+00 5.496954e+04 # SC2-SC77 type=non-native eps=0.002390 sigma=4.106549
pair_coeff 3 150 0.000000e+00 0.000000e+00 2.286802e+04 # SC2-CA78 type=non-native eps=0.002390 sigma=3.817121
pair_coeff 3 151 0.000000e+00 0.000000e+00 2.286802e+04 # SC2-SC78 type=non-native eps=0.002390 sigma=3.817121
pair_coeff 3 152 0.000000e+00 0.000000e+00 2.286802e+04 # SC2-CA79 type=non-native eps=0.002390 sigma=3.817121
pair_coeff 3 153 0.000000e+00 0.000000e+00 3.680656e+04 # SC2-SC79 type=non-native eps=0.002390 sigma=3.971555
pair_coeff 3 154 0.000000e+00 0.000000e+00 2.286802e+04 # SC2-CA80 type=non-native eps=0.002390 sigma=3.817121
pair_coeff 3 155 0.000000e+00 0.000000e+00 7.782318e+04 # SC2-SC80 type=non-native eps=0.002390 sigma=4.227263
pair_coeff 3 156 0.000000e+00 0.000000e+00 2.286802e+04 # SC2-CA81 type=non-native eps=0.002390 sigma=3.817121
pair_coeff 3 157 0.000000e+00 0.000000e+00 3.680656e+04 # SC2-SC81 type=non-native eps=0.002390 sigma=3.971555
pair_coeff 3 158 0.000000e+00 0.000000e+00 2.286802e+04 # SC2-CA82 type=non-native eps=0.002390 sigma=3.817121
pair_coeff 3 159 0.000000e+00 0.000000e+00 1.721862e+03 # SC2-SC82 type=non-native eps=0.002390 sigma=3.077042
pair_coeff 3 160 0.000000e+00 0.000000e+00 2.286802e+04 # SC2-CA83 type=non-native eps=0.002390 sigma=3.817121
pair_coeff 3 161 0.000000e+00 0.000000e+00 7.782318e+04 # SC2-SC83 type=non-native eps=0.002390 sigma=4.227263
pair_coeff 3 162 0.000000e+00 0.000000e+00 2.286802e+04 # SC2-CA84 type=non-native eps=0.002390 sigma=3.817121
pair_coeff 3 163 0.000000e+00 0.000000e+00 5.795236e+03 # SC2-SC84 type=non-native eps=0.002390 sigma=3.404522
pair_coeff 3 164 0.000000e+00 0.000000e+00 2.286802e+04 # SC2-CA85 type=non-native eps=0.002390 sigma=3.817121
pair_coeff 3 165 0.000000e+00 0.000000e+00 5.795236e+03 # SC2-SC85 type=non-native eps=0.002390 sigma=3.404522
pair_coeff 3 166 0.000000e+00 0.000000e+00 2.286802e+04 # SC2-CA86 type=non-native eps=0.002390 sigma=3.817121
pair_coeff 3 167 0.000000e+00 0.000000e+00 7.782318e+04 # SC2-SC86 type=non-native eps=0.002390 sigma=4.227263
pair_coeff 3 168 0.000000e+00 0.000000e+00 2.286802e+04 # SC2-CA87 type=non-native eps=0.002390 sigma=3.817121
pair_coeff 3 169 0.000000e+00 0.000000e+00 3.680656e+04 # SC2-SC87 type=non-native eps=0.002390 sigma=3.971555
pair_coeff 3 170 0.000000e+00 0.000000e+00 2.286802e+04 # SC2-CA88 type=non-native eps=0.002390 sigma=3.817121
pair_coeff 3 171 0.000000e+00 0.000000e+00 2.286802e+04 # SC2-SC88 type=non-native eps=0.002390 sigma=3.817121
pair_coeff 3 172 0.000000e+00 0.000000e+00 2.286802e+04 # SC2-CA89 type=non-native eps=0.002390 sigma=3.817121
pair_coeff 3 173 0.000000e+00 0.000000e+00 1.058342e+05 # SC2-SC89 type=non-native eps=0.002390 sigma=4.336963
pair_coeff 3 174 0.000000e+00 0.000000e+00 2.286802e+04 # SC2-CA90 type=non-native eps=0.002390 sigma=3.817121
pair_coeff 3 175 0.000000e+00 0.000000e+00 1.721862e+03 # SC2-SC90 type=non-native eps=0.002390 sigma=3.077042
pair_coeff 3 176 0.000000e+00 0.000000e+00 2.286802e+04 # SC2-CA91 type=non-native eps=0.002390 sigma=3.817121
pair_coeff 3 177 0.000000e+00 0.000000e+00 1.268711e+04 # SC2-SC91 type=non-native eps=0.002390 sigma=3.634241
pair_coeff 3 178 0.000000e+00 0.000000e+00 2.286802e+04 # SC2-CA92 type=non-native eps=0.002390 sigma=3.817121
pair_coeff 3 179 0.000000e+00 0.000000e+00 1.268711e+04 # SC2-SC92 type=non-native eps=0.002390 sigma=3.634241
pair_coeff 3 180 0.000000e+00 0.000000e+00 2.286802e+04 # SC2-CA93 type=non-native eps=0.002390 sigma=3.817121
pair_coeff 3 181 0.000000e+00 0.000000e+00 1.792032e+05 # SC2-SC93 type=non-native eps=0.002390 sigma=4.531538
pair_coeff 3 182 0.000000e+00 0.000000e+00 2.286802e+04 # SC2-CA94 type=non-native eps=0.002390 sigma=3.817121
pair_coeff 3 183 0.000000e+00 0.000000e+00 3.680656e+04 # SC2-SC94 type=non-native eps=0.002390 sigma=3.971555
pair_coeff 3 184 0.000000e+00 0.000000e+00 2.286802e+04 # SC2-CA95 type=non-native eps=0.002390 sigma=3.817121
pair_coeff 3 185 0.000000e+00 0.000000e+00 2.286802e+04 # SC2-CA96 type=non-native eps=0.002390 sigma=3.817121
pair_coeff 3 186 0.000000e+00 0.000000e+00 1.268711e+04 # SC2-SC96 type=non-native eps=0.002390 sigma=3.634241
pair_coeff 3 187 0.000000e+00 0.000000e+00 2.286802e+04 # SC2-CA97 type=non-native eps=0.002390 sigma=3.817121
pair_coeff 3 188 0.000000e+00 0.000000e+00 2.286802e+04 # SC2-SC97 type=non-native eps=0.002390 sigma=3.817121
pair_coeff 3 189 0.000000e+00 0.000000e+00 2.286802e+04 # SC2-CA98 type=non-native eps=0.002390 sigma=3.817121
pair_coeff 3 190 0.000000e+00 0.000000e+00 1.268711e+04 # SC2-SC98 type=non-native eps=0.002390 sigma=3.634241
pair_coeff 3 191 0.000000e+00 0.000000e+00 2.286802e+04 # SC2-CA99 type=non-native eps=0.002390 sigma=3.817121
pair_coeff 3 192 0.000000e+00 0.000000e+00 2.286802e+04 # SC2-SC99 type=non-native eps=0.002390 sigma=3.817121
pair_coeff 3 193 0.000000e+00 0.000000e+00 2.286802e+04 # SC2-CA100 type=non-native eps=0.002390 sigma=3.817121
pair_coeff 3 194 0.000000e+00 0.000000e+00 5.795236e+03 # SC2-SC100 type=non-native eps=0.002390 sigma=3.404522
pair_coeff 3 195 0.000000e+00 0.000000e+00 2.286802e+04 # SC2-CA101 type=non-native eps=0.002390 sigma=3.817121
pair_coeff 3 196 0.000000e+00 0.000000e+00 3.680656e+04 # SC2-SC101 type=non-native eps=0.002390 sigma=3.971555
pair_coeff 3 197 0.000000e+00 0.000000e+00 2.286802e+04 # SC2-CA102 type=non-native eps=0.002390 sigma=3.817121
pair_coeff 3 198 0.000000e+00 0.000000e+00 5.795236e+03 # SC2-SC102 type=non-native eps=0.002390 sigma=3.404522
pair_coeff 3 199 0.000000e+00 0.000000e+00 2.286802e+04 # SC2-CA103 type=non-native eps=0.002390 sigma=3.817121
pair_coeff 3 200 0.000000e+00 0.000000e+00 1.268711e+04 # SC2-SC103 type=non-native eps=0.002390 sigma=3.634241
pair_coeff 3 201 0.000000e+00 0.000000e+00 2.286802e+04 # SC2-CA104 type=non-native eps=0.002390 sigma=3.817121
pair_coeff 3 202 0.000000e+00 0.000000e+00 5.795236e+03 # SC2-SC104 type=non-native eps=0.002390 sigma=3.404522
pair_coeff 3 203 0.000000e+00 0.000000e+00 2.286802e+04 # SC2-CA105 type=non-native eps=0.002390 sigma=3.817121
pair_coeff 3 204 0.000000e+00 0.000000e+00 3.680656e+04 # SC2-SC105 type=non-native eps=0.002390 sigma=3.971555
pair_coeff 3 205 0.000000e+00 0.000000e+00 2.286802e+04 # SC2-CA106 type=non-native eps=0.002390 sigma=3.817121
pair_coeff 3 206 0.000000e+00 0.000000e+00 2.286802e+04 # SC2-SC106 type=non-native eps=0.002390 sigma=3.817121
pair_coeff 3 207 0.000000e+00 0.000000e+00 2.286802e+04 # SC2-CA107 type=non-native eps=0.002390 sigma=3.817121
pair_coeff 3 208 0.000000e+00 0.000000e+00 5.795236e+03 # SC2-SC107 type=non-native eps=0.002390 sigma=3.404522
pair_coeff 4 4 0.000000e+00 0.000000e+00 4.009755e+04 # CA3-CA3 type=non-native eps=0.002390 sigma=4.000000
pair_coeff 4 5 0.000000e+00 0.000000e+00 4.009755e+04 # CA3-SC3 type=non-native eps=0.002390 sigma=4.000000
pair_coeff 4 6 0.000000e+00 0.000000e+00 4.009755e+04 # CA3-CA4 type=non-native eps=0.002390 sigma=4.000000
pair_coeff 4 7 0.000000e+00 0.000000e+00 4.009755e+04 # CA3-SC4 type=non-native eps=0.002390 sigma=4.000000
pair_coeff 4 8 0.000000e+00 0.000000e+00 4.009755e+04 # CA3-CA5 type=non-native eps=0.002390 sigma=4.000000
pair_coeff 4 9 0.000000e+00 0.000000e+00 3.442571e+03 # CA3-SC5 type=non-native eps=0.002390 sigma=3.259921
pair_coeff 4 10 0.000000e+00 0.000000e+00 4.009755e+04 # CA3-CA6 type=non-native eps=0.002390 sigma=4.000000
pair_coeff 4 11 0.000000e+00 0.000000e+00 1.085818e+04 # CA3-SC6 type=non-native eps=0.002390 sigma=3.587401
pair_coeff 4 12 0.000000e+00 0.000000e+00 4.009755e+04 # CA3-CA7 type=non-native eps=0.002390 sigma=4.000000
pair_coeff 4 13 0.000000e+00 0.000000e+00 2.286802e+04 # CA3-SC7 type=non-native eps=0.002390 sigma=3.817121
pair_coeff 4 14 0.000000e+00 0.000000e+00 4.009755e+04 # CA3-CA8 type=non-native eps=0.002390 sigma=4.000000
pair_coeff 4 15 0.000000e+00 0.000000e+00 6.317440e+04 # CA3-SC8 type=non-native eps=0.002390 sigma=4.154435
pair_coeff 4 16 0.000000e+00 0.000000e+00 4.009755e+04 # CA3-CA9 type=non-native eps=0.002390 sigma=4.000000
pair_coeff 4 17 0.000000e+00 0.000000e+00 6.317440e+04 # CA3-SC9 type=non-native eps=0.002390 sigma=4.154435
pair_coeff 4 18 0.000000e+00 0.000000e+00 4.009755e+04 # CA3-CA10 type=non-native eps=0.002390 sigma=4.000000
pair_coeff 4 19 0.000000e+00 0.000000e+00 6.317440e+04 # CA3-SC10 type=non-native eps=0.002390 sigma=4.154435
pair_coeff 4 20 0.000000e+00 0.000000e+00 4.009755e+04 # CA3-CA11 type=non-native eps=0.002390 sigma=4.000000
pair_coeff 4 21 0.000000e+00 0.000000e+00 4.009755e+04 # CA3-CA12 type=non-native eps=0.002390 sigma=4.000000
pair_coeff 4 22 0.000000e+00 0.000000e+00 2.286802e+04 # CA3-SC12 type=non-native eps=0.002390 sigma=3.817121
pair_coeff 4 23 0.000000e+00 0.000000e+00 4.009755e+04 # CA3-CA13 type=non-native eps=0.002390 sigma=4.000000
pair_coeff 4 24 0.000000e+00 0.000000e+00 1.293687e+05 # CA3-SC13 type=non-native eps=0.002390 sigma=4.410142
pair_coeff 4 25 0.000000e+00 0.000000e+00 4.009755e+04 # CA3-CA14 type=non-native eps=0.002390 sigma=4.000000
pair_coeff 4 26 0.000000e+00 0.000000e+00 1.293687e+05 # CA3-SC14 type=non-native eps=0.002390 sigma=4.410142
pair_coeff 4 27 0.000000e+00 0.000000e+00 4.009755e+04 # CA3-CA15 type=non-native eps=0.002390 sigma=4.000000
pair_coeff 4 28 0.000000e+00 0.000000e+00 3.442571e+03 # CA3-SC15 type=non-native eps=0.002390 sigma=3.259921
pair_coeff 4 29 0.000000e+00 0.000000e+00 4.009755e+04 # CA3-CA16 type=non-native eps=0.002390 sigma=4.000000
pair_coeff 4 30 0.000000e+00 0.000000e+00 4.009755e+04 # CA3-SC16 type=non-native eps=0.002390 sigma=4.000000
pair_coeff 4 31 0.000000e+00 0.000000e+00 4.009755e+04 # CA3-CA17 type=non-native eps=0.002390 sigma=4.000000
pair_coeff 4 32 0.000000e+00 0.000000e+00 4.009755e+04 # CA3-SC17 type=non-native eps=0.002390 sigma=4.000000
pair_coeff 4 33 0.000000e+00 0.000000e+00 4.009755e+04 # CA3-CA18 type=non-native eps=0.002390 sigma=4.000000
pair_coeff 4 34 0.000000e+00 0.000000e+00 1.293687e+05 # CA3-SC18 type=non-native eps=0.002390 sigma=4.410142
pair_coeff 4 35 0.000000e+00 0.000000e+00 4.009755e+04 # CA3-CA19 type=non-native eps=0.002390 sigma=4.000000
pair_coeff 4 36 0.000000e+00 0.000000e+00 3.442571e+03 # CA3-SC19 type=non-native eps=0.002390 sigma=3.259921
pair_coeff 4 37 0.000000e+00 0.000000e+00 4.009755e+04 # CA3-CA20 type=non-native eps=0.002390 sigma=4.000000
pair_coeff 4 38 0.000000e+00 0.000000e+00 2.286802e+04 # CA3-SC20 type=non-native eps=0.002390 sigma=3.817121
pair_coeff 4 39 0.000000e+00 0.000000e+00 4.009755e+04 # CA3-CA21 type=non-native eps=0.002390 sigma=4.000000
pair_coeff 4 40 0.000000e+00 0.000000e+00 4.009755e+04 # CA3-CA22 type=non-native eps=0.002390 sigma=4.000000
pair_coeff 4 41 0.000000e+00 0.000000e+00 6.317440e+04 # CA3-SC22 type=non-native eps=0.002390 sigma=4.154435
pair_coeff 4 42 0.000000e+00 0.000000e+00 4.009755e+04 # CA3-CA23 type=non-native eps=0.002390 sigma=4.000000
pair_coeff 4 43 0.000000e+00 0.000000e+00 1.737309e+05 # CA3-SC23 type=non-native eps=0.002390 sigma=4.519842
pair_coeff 4 44 0.000000e+00 0.000000e+00 4.009755e+04 # CA3-CA24 type=non-native eps=0.002390 sigma=4.000000
pair_coeff 4 45 0.000000e+00 0.000000e+00 4.009755e+04 # CA3-SC24 type=non-native eps=0.002390 sigma=4.000000
pair_coeff 4 46 0.000000e+00 0.000000e+00 4.009755e+04 # CA3-CA25 type=non-native eps=0.002390 sigma=4.000000
pair_coeff 4 47 0.000000e+00 0.000000e+00 6.317440e+04 # CA3-SC25 type=non-native eps=0.002390 sigma=4.154435
pair_coeff 4 48 0.000000e+00 0.000000e+00 4.009755e+04 # CA3-CA26 type=non-native eps=0.002390 sigma=4.000000
pair_coeff 4 49 0.000000e+00 0.000000e+00 3.442571e+03 # CA3-SC26 type=non-native eps=0.002390 sigma=3.259921
pair_coeff 4 50 0.000000e+00 0.000000e+00 4.009755e+04 # CA3-CA27 type=non-native eps=0.002390 sigma=4.000000
pair_coeff 4 51 0.000000e+00 0.000000e+00 1.085818e+04 # CA3-SC27 type=non-native eps=0.002390 sigma=3.587401
pair_coeff 4 52 0.000000e+00 0.000000e+00 4.009755e+04 # CA3-CA28 type=non-native eps=0.002390 sigma=4.000000
pair_coeff 4 53 0.000000e+00 0.000000e+00 4.009755e+04 # CA3-SC28 type=non-native eps=0.002390 sigma=4.000000
pair_coeff 4 54 0.000000e+00 0.000000e+00 4.009755e+04 # CA3-CA29 type=non-native eps=0.002390 sigma=4.000000
pair_coeff 4 55 0.000000e+00 0.000000e+00 4.009755e+04 # CA3-SC29 type=non-native eps=0.002390 sigma=4.000000
pair_coeff 4 56 0.000000e+00 0.000000e+00 4.009755e+04 # CA3-CA30 type=non-native eps=0.002390 sigma=4.000000
pair_coeff 4 57 0.000000e+00 0.000000e+00 4.009755e+04 # CA3-SC30 type=non-native eps=0.002390 sigma=4.000000
pair_coeff 4 58 0.000000e+00 0.000000e+00 4.009755e+04 # CA3-CA31 type=non-native eps=0.002390 sigma=4.000000
pair_coeff 4 59 0.000000e+00 0.000000e+00 1.737309e+05 # CA3-SC31 type=non-native eps=0.002390 sigma=4.519842
pair_coeff 4 60 0.000000e+00 0.000000e+00 4.009755e+04 # CA3-CA32 type=non-native eps=0.002390 sigma=4.000000
pair_coeff 4 61 0.000000e+00 0.000000e+00 9.272377e+04 # CA3-SC32 type=non-native eps=0.002390 sigma=4.289428
pair_coeff 4 62 0.000000e+00 0.000000e+00 4.009755e+04 # CA3-CA33 type=non-native eps=0.002390 sigma=4.000000
pair_coeff 4 63 0.000000e+00 0.000000e+00 1.085818e+04 # CA3-SC33 type=non-native eps=0.002390 sigma=3.587401
pair_coeff 4 64 0.000000e+00 0.000000e+00 4.009755e+04 # CA3-CA34 type=non-native eps=0.002390 sigma=4.000000
pair_coeff 4 65 0.000000e+00 0.000000e+00 1.293687e+05 # CA3-SC34 type=non-native eps=0.002390 sigma=4.410142
pair_coeff 4 66 0.000000e+00 0.000000e+00 4.009755e+04 # CA3-CA35 type=non-native eps=0.002390 sigma=4.000000
pair_coeff 4 67 0.000000e+00 0.000000e+00 3.442571e+03 # CA3-SC35 type=non-native eps=0.002390 sigma=3.259921
pair_coeff 4 68 0.000000e+00 0.000000e+00 4.009755e+04 # CA3-CA36 type=non-native eps=0.002390 sigma=4.000000
pair_coeff 4 69 0.000000e+00 0.000000e+00 4.009755e+04 # CA3-SC36 type=non-native eps=0.002390 sigma=4.000000
pair_coeff 4 70 0.000000e+00 0.000000e+00 4.009755e+04 # CA3-CA37 type=non-native eps=0.002390 sigma=4.000000
pair_coeff 4 71 0.000000e+00 0.000000e+00 6.317440e+04 # CA3-SC37 type=non-native eps=0.002390 sigma=4.154435
pair_coeff 4 72 0.000000e+00 0.000000e+00 4.009755e+04 # CA3-CA38 type=non-native eps=0.002390 sigma=4.000000
pair_coeff 4 73 0.000000e+00 0.000000e+00 2.286802e+04 # CA3-SC38 type=non-native eps=0.002390 sigma=3.817121
pair_coeff 4 74 0.000000e+00 0.000000e+00 4.009755e+04 # CA3-CA39 type=non-native eps=0.002390 sigma=4.000000
pair_coeff 4 75 0.000000e+00 0.000000e+00 2.286802e+04 # CA3-SC39 type=non-native eps=0.002390 sigma=3.817121
pair_coeff 4 76 0.000000e+00 0.000000e+00 4.009755e+04 # CA3-CA40 type=non-native eps=0.002390 sigma=4.000000
pair_coeff 4 77 0.000000e+00 0.000000e+00 1.293687e+05 # CA3-SC40 type=non-native eps=0.002390 sigma=4.410142
pair_coeff 4 78 -2.233246e+05 0.000000e+00 5.216935e+10 # CA3-CA41 type=native eps=0.239000 sigma=8.808828
pair_coeff 4 79 0.000000e+00 0.000000e+00 3.442571e+03 # CA3-SC41 type=non-native eps=0.002390 sigma=3.259921
pair_coeff 4 80 -2.587336e+03 0.000000e+00 3.501208e+07 # CA3-CA42 type=native eps=0.047800 sigma=5.479394
pair_coeff 4 81 -3.713322e+04 0.000000e+00 1.802923e+09 # CA3-SC42 type=native eps=0.191200 sigma=6.779653
pair_coeff 4 82 -3.455263e+03 0.000000e+00 4.058707e+07 # CA3-CA43 type=native eps=0.073538 sigma=5.351671
pair_coeff 4 83 -3.610651e+03 0.000000e+00 1.772787e+08 # CA3-SC43 type=native eps=0.018385 sigma=6.792300
pair_coeff 4 84 0.000000e+00 0.000000e+00 4.009755e+04 # CA3-CA44 type=non-native eps=0.002390 sigma=4.000000
pair_coeff 4 85 0.000000e+00 0.000000e+00 6.317440e+04 # CA3-SC44 type=non-native eps=0.002390 sigma=4.154435
pair_coeff 4 86 0.000000e+00 0.000000e+00 4.009755e+04 # CA3-CA45 type=non-native eps=0.002390 sigma=4.000000
pair_coeff 4 87 0.000000e+00 0.000000e+00 4.009755e+04 # CA3-SC45 type=non-native eps=0.002390 sigma=4.000000
pair_coeff 4 88 0.000000e+00 0.000000e+00 4.009755e+04 # CA3-CA46 type=non-native eps=0.002390 sigma=4.000000
pair_coeff 4 89 0.000000e+00 0.000000e+00 2.286802e+04 # CA3-SC46 type=non-native eps=0.002390 sigma=3.817121
pair_coeff 4 90 0.000000e+00 0.000000e+00 4.009755e+04 # CA3-CA47 type=non-native eps=0.002390 sigma=4.000000
pair_coeff 4 91 0.000000e+00 0.000000e+00 3.442571e+03 # CA3-SC47 type=non-native eps=0.002390 sigma=3.259921
[...]
 2687000    120.57318    27.169574   -41.023887    27.103235    26.426539    14.663687 
 2687500    125.27537    21.302483   -44.630689    23.303675    29.076535    13.552961 
 2688000    122.01957    22.491795   -43.940769    21.307162    28.640569    16.484833 
 2688500    119.12895    22.520463   -42.124247    22.906871    28.397125    13.340713 
 2689000    119.68872    24.617348   -40.438146     23.53721    24.629479    16.888805 
 2689500    128.18735    22.903515    -44.17791    22.770311    28.329581    15.981533 
 2690000     124.7139    19.969303   -42.089735    20.845438     27.88656     13.32704 
 2690500    110.88172    27.019962   -41.182759    21.415014    30.494955    16.292753 
 2691000    115.29358    23.978345   -41.029477    25.290856    27.054962    12.662004 
 2691500    116.78522     19.52815   -42.095881    22.211673    25.969209    13.443148 
 2692000    114.34856    23.103548   -43.149025    24.546736    28.116516    13.589321 
 2692500    113.30739    23.242532    -41.79556    22.575295    27.803951    14.658847 
 2693000    111.56588    22.723386   -38.916293    25.099233     23.14902    13.391425 
 2693500    123.65144     21.09689   -40.302458    24.026357    22.870784    14.502207 
 2694000    121.93443    23.519369   -39.991639    21.239318    26.848236    15.423454 
 2694500    112.68169    34.393516   -38.645565    25.407691    31.000799    16.630591 
 2695000     112.2583    30.858821   -38.576953    23.396892    28.756557    17.282325 
 2695500    113.29946    23.337441   -41.565068    21.033764    29.688172    14.180572 
 2696000    110.79119    26.010927   -42.999101    25.535199    29.258065    14.216763 
 2696500    120.29561    19.617514   -43.710365    23.827725     26.98677    12.513384 
 2697000    109.29682    25.136281   -41.633308    26.282475    25.505587    14.981526 
 2697500    121.54801    20.013929   -44.450605     20.90273    28.395162    15.166641 
 2698000    126.21662    25.793748   -42.081764    25.077657    25.995612    16.802243 
 2698500    128.24549     22.36855    -41.95966    21.088868    28.815593     14.42375 
 2699000    118.57089    27.575247   -40.402711    23.917305    26.058228    18.002425 
 2699500    133.85234    25.790068   -41.400439    25.449144    25.306813     16.43455 
 2700000    128.00565    30.220349    -42.65902    25.421866      28.0811    19.376403 
 2700500     117.8661    34.091024   -38.005207     23.43538    28.994994    19.665857 
 2701000    122.99597    31.405995   -38.614297    24.216056    27.533077    18.271159 
 2701500    121.90993    28.231219   -38.861575    24.985135    26.248294    15.859364 
 2702000    112.02311    34.134698   -40.501255    25.951295    31.156331    17.528326 
 2702500    115.97943    30.999929   -39.631145    21.407571    30.282489    18.941015 
 2703000    112.03661    35.467204    -38.29429    25.335454    30.601707    17.824332 
 2703500     133.9484    23.877053   -40.454707    23.557394    25.545153    15.229213 
 2704000    126.09541    33.293313    -38.27619    23.755355    28.626851    19.187297 
 2704500    122.73991    35.104135   -40.492349    27.015155    31.055426    17.525903 
 2705000    129.36401    28.201185   -37.735337     23.46393    26.973428    15.499164 
 2705500    122.57186    30.354248   -39.998635    22.493199    32.670488    15.189196 
 2706000    123.65863    29.420199   -41.735642    25.927719    28.480853    16.747268 
 2706500    128.44426    26.501739   -43.852025     23.91073    31.927099    14.515936 
 2707000    127.67909    23.899766   -43.773213    22.197183    29.400494    16.075302 
 2707500    123.48799    28.249493   -43.324607    25.524865     29.81048    16.238754 
 2708000     120.6091    24.697521   -41.989729    24.226113    26.074348    16.386789 
 2708500    120.54908    28.085286   -42.949702    24.476108    31.679898    14.878983 
 2709000     125.9092    29.252082   -42.379368    24.031977    28.931995    18.667478 
 2709500      110.124    33.276863    -39.12694    24.538429    29.500844     18.36453 
 2710000    122.72094    23.680953   -43.228428    24.326741    24.777578    17.805062 
 2710500    125.21923    19.805335   -45.822369    25.044483    23.959048    16.624172 
 2711000    116.15619     28.58892   -47.409234    25.656555    30.003609     20.33799 
 2711500    119.60581    32.720492   -45.372487    29.568692    30.709004    17.815283 
 2712000    119.30404    35.540769   -43.834207    30.422646    30.154435    18.797895 
 2712500    122.78211    30.692251   -43.856507    25.295586    31.885221    17.367951 
 2713000    128.10592    25.941159   -46.605996    29.661778    28.343984    14.541393 
 2713500    122.76341    27.377051   -46.768928    27.641553    31.066218    15.438208 
 2714000    126.71332    26.787551    -46.84251    28.183287    30.666403     14.78037 
 2714500    120.95978    32.260993   -45.642144    27.762549    33.818191    16.322397 
 2715000    131.35742    20.853262   -46.082905    27.269416     25.88611    13.780641 
 2715500    120.57916    24.967774   -44.637871     28.20867    24.149339    17.247636 
 2716000    129.01041    27.681959   -45.140817    29.396132    27.923704    15.502941 
 2716500    130.49956     23.63517   -45.340494    27.195705    26.541086    15.238873 
 2717000    128.55795     32.33219   -47.782086    29.203726    34.261911    16.648639 
 2717500    136.54454    26.521627   -47.537659    28.142061     31.07979    14.837435 
 2718000    136.41026    29.967213   -44.461151    29.350814       28.867     16.21055 
 2718500     125.5266     33.49975   -40.225293    25.884076     31.81821    16.022756 
 2719000    126.75093    34.528867   -40.355499    25.811998    30.555911    18.516457 
 2719500    125.09424    31.841288   -39.246953    25.546378    29.155903     16.38596 
 2720000    120.49419    27.392244   -43.155405    27.674545    27.118817    15.754287 
 2720500    129.12082      25.7222   -43.932675    27.042858    27.672435    14.939582 
 2721000    121.26211    29.080586   -43.151546    26.506528    30.438108    15.287496 
 2721500    124.71116     22.51579   -46.083273    23.279012    28.834875    16.485176 
 2722000    126.72355    25.337571   -41.599838    24.428124    27.372743    15.136542 
 2722500    116.76831    34.307974   -39.395352    27.034129    31.542276    15.126921 
 2723000    129.58571    28.210336   -41.942147    22.262352    33.305877    14.584254 
 2723500    125.80075    30.396879   -41.812798    25.785261    30.733631    15.690785 
 2724000    137.73832    27.712396   -41.684469    25.864421    28.864534     14.66791 
 2724500    123.29336    29.225763   -40.969646    24.652854    28.657896    16.884659 
 2725000    123.88128    23.210594   -40.886737     24.35132    24.850929    14.895082 
 2725500    130.58605    22.873534   -40.376556    25.930307    24.276323    13.043459 
 2726000    126.99479    23.110921   -43.354933    25.364478    28.685486     12.41589 
 2726500    120.15573    30.076031   -42.151988    29.017604    26.606796    16.603619 
 2727000     120.1803    26.905471   -40.515526    26.855321    25.889108    14.676568 
 2727500    129.45856    28.728623   -39.666316    25.610657    25.625262     17.15902 
 2728000    126.74748    38.643179   -39.289041    31.341717    29.268351    17.322152 
 2728500    124.27231    29.280583   -40.459277    25.082575    28.428656     16.22863 
 2729000     121.2268    26.357144   -42.967149    24.961757    27.183954    17.178583 
 2729500    124.56372    31.518783   -39.043934    26.232657    26.646579    17.683481 
 2730000    113.78441    34.515817   -38.664944    27.525342    29.940874    15.714546 
 2730500    129.73794    29.756008   -38.778913    24.677277    26.888051    16.969593 
 2731000    133.21952    31.874671   -38.425661    25.168458    28.606264     16.52561 
 2731500    128.95378    38.063036   -37.503205    26.964359    31.544933     17.05695 
 2732000    125.61479    37.196527   -34.697836    24.453985    27.592682    19.847695 
 2732500    128.95136    42.330285   -35.338227    24.984051    32.635714    20.048748 
 2733000    125.78925    44.608633   -35.708758    26.456753    33.592499    20.268138 
 2733500    122.97231    42.683377   -33.617069    24.577832    28.777159    22.945454 
 2734000    109.88983    49.028437   -33.953684    30.335005    31.940382    20.706734 
 2734500    129.55777    42.375889   -37.033025    28.315507    30.957852    20.135555 
 2735000    135.71423    35.633458   -41.759716    26.380761    28.887962     22.12445 
 2735500    131.19731    34.893866    -39.63204    24.264854      32.7172    17.543852 
 2736000    128.15934     27.85096   -40.064809    22.451675    27.024558    18.439536 
 2736500    117.10567    33.850976   -38.268098    25.390227     26.26195    20.466896 
 2737000    120.92341    25.386656   -39.578541    21.908965    28.493652     14.56258 
 2737500     116.4377    27.659851   -41.267829    24.701065     26.77145    17.455165 
 2738000    117.10762    26.951888    -41.69455    23.528298    29.862414    15.255726 
 2738500    118.08411    27.105674   -40.465591    22.261783    29.686065    15.623417 
 2739000    118.81253    26.434427   -38.737705    21.598093     29.58376    13.990278 
 2739500    120.52624    20.286824   -42.686233    24.293553    24.246668    14.432836 
 2740000    124.44422    16.382001   -44.463705    20.128382    26.593841    14.123484 
 2740500    123.94646    22.790692   -42.546913     25.10338    24.202961    16.031264 
 2741000    119.01374    25.950646    -43.34215    23.602311    31.640622    14.049863 
 2741500    123.30112    28.748799   -45.146388    29.568663    28.633421    15.693103 
 2742000    126.36376    19.639412    -44.54029    23.533379    25.720182    14.926142 
 2742500    132.02336    24.588503    -44.68892    29.015368    23.956033    16.306022 
 2743000    135.71113    32.009848   -44.185807    27.012205    31.267688    17.915762 
 2743500    138.92496    30.556361   -43.830685    28.296211    29.278498    16.812337 
 2744000    134.55052    29.369938   -45.416898     29.76281    28.663824    16.360202 
 2744500    134.25654    29.601832    -43.98314    27.190513    28.953464    17.440995 
 2745000    130.79368    34.611953   -41.851559    29.597674    29.550368     17.31547 
 2745500    129.35087    32.446356   -41.899945    26.653997    33.080993     14.61131 
 2746000    130.75519     29.95161   -45.605888     28.86536    29.802303    16.889834 
 2746500    135.55095    29.863603   -46.089981    31.997813    27.894559    16.061212 
 2747000      135.909    24.273424   -47.304882    25.756373    31.661516    14.160416 
 2747500    130.41455    26.661678    -47.28239    28.646491    29.853579    15.443998 
 2748000    128.19711    26.215848    -45.05803    31.669898    24.867199    14.736782 
 2748500    124.90741     30.18502    -43.84937    29.857898    29.457052     14.71944 
 2749000    124.38442    35.754584   -42.251562    34.132788    24.979962    18.893397 
 2749500    138.83141    30.031336   -42.900663    25.934515    29.123266    17.874217 
 2750000    137.73467    30.341686   -41.237874    30.927932     25.14622    15.505408 
 2750500    139.07846    31.962916   -44.265718    32.265643    27.509674    16.453317 
 2751000    137.22754    30.647179    -47.38508    28.436477    31.772876    17.822906 
 2751500    131.72221    30.086424   -45.840829    30.243925    29.054973    16.628355 
 2752000    127.84595    22.674756    -47.39742    26.907075     26.75734    16.407761 
 2752500    124.41242    26.243878   -45.431977    27.096726    28.331915    16.247213 
 2753000    125.78696    23.789258   -40.801377    27.521634    23.118844    13.950157 
 2753500    125.65523    33.445445   -42.462389    31.438142    29.074381    15.395312 
 2754000     122.5844    32.364361   -44.289558    30.774915    31.596501    14.282504 
 2754500    127.43134     28.14784   -44.181887     29.23629    27.783601    15.309835 
 2755000    128.79464    23.989593   -47.140346    25.845388     27.90335    17.381201 
 2755500    133.72603    21.689656   -43.668871    27.275373    22.913122    15.170032 
 2756000    117.32229    30.813895   -39.818675    25.212755     29.14522    16.274596 
 2756500    118.63048    28.302847   -43.330354    27.718054    27.487461    16.427686 
 2757000     120.9162    23.876357   -41.721342    22.954152    27.849464    14.794082 
 2757500    116.14164     23.06316     -44.2044    24.207456    27.903406    15.156699 
 2758000    121.15131    27.463158   -42.966557    24.386472    28.689803     17.35344 
 2758500     122.6164    26.596601   -43.165385    25.582863    25.843622    18.335501 
 2759000     126.5461    19.831959   -46.248603    24.150671    26.550544    15.379347 
 2759500    129.01386    24.724593   -43.392797    24.194948    27.305709    16.616732 
 2760000    119.26491    32.239624   -41.588294    27.504955     29.32106    17.001902 
 2760500    126.62106    29.802546   -42.173206     28.25334    24.837405    18.885007 
 2761000    114.18209    28.840881   -41.553187    25.064589    27.960297    17.369182 
 2761500    125.36649    17.677186   -43.721347    18.912531    26.898031     15.58797 
 2762000    123.21004    22.516996   -43.699017    24.057289    27.408962    14.749763 
 2762500     113.5876    17.934383   -45.609145    23.536973    25.047425     14.95913 
 2763000    113.32128    22.162569   -45.719453    25.996329    26.745959    15.139735 
 2763500    119.77164    22.375368   -47.150329    26.843224    28.472474    14.209999 
 2764000    118.89101    19.600655   -45.010381    22.896818    26.824442    14.889777 
 2764500    114.84446    21.389084   -43.697484    26.683886    24.539077    13.863606 
 2765000    121.99588    21.312226   -46.418214    26.188564    26.427948    15.113927 
 2765500    112.20707    25.871681   -43.461485    24.581597     29.96245    14.789119 
 2766000    130.04421    24.049708   -42.771351    24.981431    25.329262    16.510365 
 2766500    121.25648    20.677426   -44.141529    23.442363    28.739827    12.636764 
 2767000    116.98267    21.712298   -43.827342    21.818706    29.693762    14.027172 
 2767500    118.43544    19.865218   -44.384423    24.959678    22.069213     17.22075 
 2768000    122.70305    21.632407   -42.253296    23.685395    22.730435    17.469873 
 2768500    113.29149     23.39106    -43.22661    22.828531    27.074133    16.715006 
 2769000    124.11291    16.296027   -44.672141    20.183362    26.122615    14.662192 
 2769500    124.30118    20.136331   -42.936503    24.742601    25.727405    12.602829 
 2770000     120.4881    24.155945   -43.595107    24.510344     26.35546    16.885248 
 2770500    117.92103     24.47409   -45.426399    25.608248    26.143951     18.14829 
 2771000    118.47627    24.380513   -44.084732     25.99318    29.237081    13.234984 
 2771500    110.25454    21.642808   -46.049849    24.731767    27.965267    14.995623 
 2772000     109.1912    19.860206    -46.46973    24.125637    26.844016    15.360282 
 2772500    110.65917    21.052703   -46.601615     24.30702    28.506401    14.840898 
 2773000    113.94126    21.123443   -47.715785    27.018513    27.177144    14.643571 
 2773500    116.54389    27.735265   -42.730586    27.934164    30.091083    12.440604 
 2774000    120.94954    26.664525   -41.280651    24.577085     28.13994    15.228151 
 2774500    113.87524    27.368592   -43.058346    25.551082    28.051265     16.82459 
 2775000     116.9607    25.722619   -39.276753    25.407386     23.43504    16.156946 
 2775500    116.47547    28.086461    -42.50942    27.059634    26.593352    16.942895 
 2776000    113.16489    32.461284   -40.647581    26.638726    31.163966    15.306173 
 2776500    131.83919    26.797436   -43.045496    25.618543    28.404789      15.8196 
 2777000     134.9838    28.398385   -41.533992    26.023478    29.108948    14.799952 
 2777500     129.8453    30.436578   -43.059006    31.249268    25.137125    17.109192 
 2778000    124.40097    30.965835   -43.424866    30.591121    25.706836    18.092745 
 2778500    124.55499    28.454297   -42.437314    25.231089    28.501664    17.158857 
 2779000    137.26823    24.181336   -42.829015    23.742659    27.017921    16.249771 
 2779500    135.02749    28.180671   -40.361296    24.812182    26.335438    17.394348 
 2780000    127.31096    28.512028   -41.257556    25.073674    27.125042    17.570868 
 2780500    136.55831    22.715524    -40.55847     23.67819    24.830826    14.764978 
 2781000    112.79281     37.42627   -36.054119    24.435269    30.309433    18.735687 
 2781500    125.71495    29.508439   -39.247361    22.964514    28.169421    17.621865 
 2782000    132.50455    29.140225   -38.984078    22.794582    28.903819    16.425902 
 2782500    138.67127    30.137847   -40.752934    28.164183     26.39355    16.333047 
 2783000    118.75428    35.807826   -38.453571    25.293551    30.273494    18.694351 
 2783500    121.44464    36.433916   -37.455377    23.817299    33.014127    17.057867 
 2784000     122.9154    32.329798   -38.737373    23.358188     31.39107    16.317914 
 2784500    124.16622    34.870223   -38.877428    28.176511    26.900464    18.670675 
 2785000    117.91004    34.465924   -42.054491    30.759674    28.496747    17.263994 
 2785500    117.58375    32.186665    -41.84495    25.458505    31.318137    17.254972 
 2786000    128.22137    25.123333   -45.026328     26.30954    26.686351     17.15377 
 2786500    145.32248    35.192108   -41.388315    28.815822    32.011828    15.752774 
 2787000    145.20007    38.785887   -42.697964    26.533946    35.847324    19.102582 
 2787500    146.65215    33.131558   -42.304704    28.358362     29.00341     18.07449 
 2788000    133.14441    44.298103   -39.739231    29.561624    34.463203    20.012506 
 2788500    124.42418    43.859144   -40.177866    25.319977    38.949034    19.767999 
 2789000    125.10555    44.035523    -35.60933    29.638175    30.179085    19.827593 
 2789500    126.30392    43.262244   -39.640194    28.081717    35.882109    18.938613 
 2790000    144.53403    31.215897   -41.247376    27.513994    27.805338    17.143941 
 2790500    148.74755    36.663442   -40.790171    28.287815    31.525633    17.640164 
 2791000    138.27909    34.262864   -38.145774    24.287014    31.306464     16.81516 
 2791500    138.61074    38.139326   -36.606476    26.007567    30.481587    18.256648 
 2792000     133.6689    40.792313   -38.061248    26.877828    33.434801    18.540932 
 2792500    123.33666    42.908962   -35.853146    29.853981    29.678758    19.229369 
 2793000    138.70723    31.207298   -38.941694    24.190205    28.456383    17.502404 
 2793500    124.07237    35.888785   -38.214303    27.468991    27.864569    18.769528 
 2794000    122.66826    45.326136   -34.758175    27.493926    31.830883    20.759503 
 2794500    128.26764    41.040733    -33.20327    24.524288    29.038167    20.681549 
 2795000    128.81529    34.153474   -33.858196    24.907793      25.6534    17.450476 
 2795500    125.41108    38.621334   -34.013872    25.269247    27.919181    19.446777 
 2796000     131.4191    36.685435   -35.253087    24.094699    29.779117    18.064706 
 2796500    122.12029    41.370929   -37.445979    29.578789    30.822691    18.415429 
 2797000    125.75055      38.7192   -37.572373    25.557188    31.515541    19.218844 
 2797500    124.84116    42.240066   -35.897858    28.525878    30.842789    18.769257 
 2798000    114.13195    42.123689   -33.686553    26.488744     31.46365    17.857847 
 2798500    132.25734     34.14698   -37.373047    25.518521      27.9171    18.084406 
 2799000    133.06215    32.600122   -38.852981    25.377618    28.458274    17.617211 
 2799500    140.37127    23.515979   -44.094549    27.785396    25.490097    14.335036 
 2800000    137.64358    2