LAMMPS data file

211 atoms
210 bonds
311 angles
636 dihedrals

211 atom types
210 bond types
311 angle types
636 dihedral types

-200.000000 200.000000 xlo xhi
-200.000000 200.000000 ylo yhi
-200.000000 200.000000 zlo zhi

Masses

1 1.0
2 1.0
3 1.0
4 1.0
5 1.0
6 1.0
7 1.0
8 1.0
9 1.0
10 1.0
11 1.0
12 1.0
13 1.0
14 1.0
15 1.0
16 1.0
17 1.0
18 1.0
19 1.0
20 1.0
21 1.0
22 1.0
23 1.0
24 1.0
25 1.0
26 1.0
27 1.0
28 1.0
29 1.0
30 1.0
31 1.0
32 1.0
33 1.0
34 1.0
35 1.0
36 1.0
37 1.0
38 1.0
39 1.0
40 1.0
41 1.0
42 1.0
43 1.0
44 1.0
45 1.0
46 1.0
47 1.0
48 1.0
49 1.0
50 1.0
51 1.0
52 1.0
53 1.0
54 1.0
55 1.0
56 1.0
57 1.0
58 1.0
59 1.0
60 1.0
61 1.0
62 1.0
63 1.0
64 1.0
65 1.0
66 1.0
67 1.0
68 1.0
69 1.0
70 1.0
71 1.0
72 1.0
73 1.0
74 1.0
75 1.0
76 1.0
77 1.0
78 1.0
79 1.0
80 1.0
81 1.0
82 1.0
83 1.0
84 1.0
85 1.0
86 1.0
87 1.0
88 1.0
89 1.0
90 1.0
91 1.0
92 1.0
93 1.0
94 1.0
95 1.0
96 1.0
97 1.0
98 1.0
99 1.0
100 1.0
101 1.0
102 1.0
103 1.0
104 1.0
105 1.0
106 1.0
107 1.0
108 1.0
109 1.0
110 1.0
111 1.0
112 1.0
113 1.0
114 1.0
115 1.0
116 1.0
117 1.0
118 1.0
119 1.0
120 1.0
121 1.0
122 1.0
123 1.0
124 1.0
125 1.0
126 1.0
127 1.0
128 1.0
129 1.0
130 1.0
131 1.0
132 1.0
133 1.0
134 1.0
135 1.0
136 1.0
137 1.0
138 1.0
139 1.0
140 1.0
141 1.0
142 1.0
143 1.0
144 1.0
145 1.0
146 1.0
147 1.0
148 1.0
149 1.0
150 1.0
151 1.0
152 1.0
153 1.0
154 1.0
155 1.0
156 1.0
157 1.0
158 1.0
159 1.0
160 1.0
161 1.0
162 1.0
163 1.0
164 1.0
165 1.0
166 1.0
167 1.0
168 1.0
169 1.0
170 1.0
171 1.0
172 1.0
173 1.0
174 1.0
175 1.0
176 1.0
177 1.0
178 1.0
179 1.0
180 1.0
181 1.0
182 1.0
183 1.0
184 1.0
185 1.0
186 1.0
187 1.0
188 1.0
189 1.0
190 1.0
191 1.0
192 1.0
193 1.0
194 1.0
195 1.0
196 1.0
197 1.0
198 1.0
199 1.0
200 1.0
201 1.0
202 1.0
203 1.0
204 1.0
205 1.0
206 1.0
207 1.0
208 1.0
209 1.0
210 1.0
211 1.0

Atoms

1 1 1 -19.246926 1.403121 17.411680 0 0 0
2 1 2 -15.562926 1.828121 16.652680 0 0 0
3 1 3 -14.943926 1.930121 18.047680 0 0 0
4 1 4 -12.531926 0.586121 14.670680 0 0 0
5 1 5 -12.085593 2.389787 15.111680 0 0 0
6 1 6 -10.233926 -2.309879 15.655680 0 0 0
7 1 7 -11.710926 -3.547213 15.793680 0 0 0
8 1 8 -6.816926 -3.825879 14.791680 0 0 0
9 1 9 -6.971593 -4.184213 16.663347 0 0 0
10 1 10 -6.469926 -6.433879 12.018680 0 0 0
11 1 11 -6.528926 -5.859546 10.176014 0 0 0
12 1 12 -5.290926 -9.991879 12.751680 0 0 0
13 1 13 -7.510811 -11.136649 12.569840 0 0 0
14 1 14 -2.675926 -11.478879 10.388680 0 0 0
15 1 15 -0.429274 -10.365923 8.690859 0 0 0
16 1 16 -4.117926 -14.969879 10.972680 0 0 0
17 1 17 -3.699785 -15.170126 13.436584 0 0 0
18 1 18 -6.767926 -14.769879 8.220680 0 0 0
19 1 19 -8.903869 -14.126302 7.100610 0 0 0
20 1 20 -5.319926 -15.875879 4.853680 0 0 0
21 1 21 -3.987488 -16.900701 2.782722 0 0 0
22 1 22 -8.324926 -14.400879 2.952680 0 0 0
23 1 23 -6.646926 -10.958879 3.044680 0 0 0
24 1 24 -5.747676 -8.911129 4.253930 0 0 0
25 1 25 -3.978926 -12.269879 0.640680 0 0 0
26 1 26 -2.294072 -14.533445 -0.896322 0 0 0
27 1 27 -6.406926 -11.197879 -2.112320 0 0 0
28 1 28 -10.094959 -11.770177 -4.479510 0 0 0
29 1 29 -6.820926 -7.519879 -1.168320 0 0 0
30 1 30 -7.305926 -7.001879 0.187680 0 0 0
31 1 31 -3.008926 -7.477879 -1.415320 0 0 0
32 1 32 -1.008426 -8.438879 -1.761320 0 0 0
33 1 33 -3.082926 -7.989879 -5.219320 0 0 0
34 1 34 -2.511529 -10.229700 -7.251186 0 0 0
35 1 35 -5.243926 -4.821879 -5.272320 0 0 0
36 1 36 -8.378783 -3.741022 -5.702891 0 0 0
37 1 37 -2.629926 -2.509879 -3.794320 0 0 0
38 1 38 -2.060926 -2.642879 -2.388320 0 0 0
39 1 39 0.003074 -3.891879 -6.191320 0 0 0
40 1 40 1.713590 -5.290276 -4.751419 0 0 0
41 1 41 -2.241926 -2.734879 -9.062320 0 0 0
42 1 42 -3.609926 -3.343879 -9.376320 0 0 0
43 1 43 -3.226926 0.762121 -7.891320 0 0 0
44 1 44 -4.021470 0.662957 -4.580501 0 0 0
45 1 45 0.533074 1.190121 -7.387320 0 0 0
46 1 46 3.976774 1.845764 -5.903072 0 0 0
47 1 47 1.296074 -0.098879 -10.917320 0 0 0
48 1 48 -0.735658 -1.219121 -12.037020 0 0 0
49 1 49 -0.732926 2.826121 -12.321320 0 0 0
50 1 50 -4.853580 2.744826 -13.724757 0 0 0
51 1 51 0.521074 5.280121 -9.675320 0 0 0
52 1 52 0.382074 5.074121 -8.167320 0 0 0
53 1 53 4.216074 4.921121 -10.634320 0 0 0
54 1 54 4.675814 3.061110 -10.219589 0 0 0
55 1 55 3.334074 5.310121 -14.341320 0 0 0
56 1 56 3.570911 7.062461 -16.115733 0 0 0
57 1 57 6.949074 5.025121 -15.555320 0 0 0
58 1 58 8.224527 6.327508 -13.838546 0 0 0
59 1 59 9.185074 2.191121 -14.321320 0 0 0
60 1 60 9.020456 -1.168699 -14.759023 0 0 0
61 1 61 11.445074 4.218121 -12.009320 0 0 0
62 1 62 14.375282 2.091837 -13.588159 0 0 0
63 1 63 11.400074 7.171121 -9.506320 0 0 0
64 1 64 9.942101 8.030050 -10.510571 0 0 0
65 1 65 8.745074 5.565121 -7.348320 0 0 0
66 1 66 7.204834 6.197146 -8.380991 0 0 0
67 1 67 9.101074 2.630121 -4.852320 0 0 0
68 1 68 12.484061 1.437099 -2.665311 0 0 0
69 1 69 7.403074 1.470121 -1.615320 0 0 0
70 1 70 6.204741 0.040121 -1.060320 0 0 0
71 1 71 9.431074 1.112121 1.614680 0 0 0
72 1 72 10.312074 2.718787 2.226347 0 0 0
73 1 73 7.577074 -0.433879 4.587680 0 0 0
74 1 74 11.840380 -0.545794 6.308771 0 0 0
75 1 75 4.145074 -0.399879 6.265680 0 0 0
76 1 76 2.782741 -1.745213 6.650014 0 0 0
77 1 77 3.375074 1.902121 9.228680 0 0 0
78 1 78 3.458824 4.242871 8.827680 0 0 0
79 1 79 0.271074 0.117121 10.610680 0 0 0
80 1 80 -0.465805 0.692713 12.332573 0 0 0
81 1 81 -3.140926 -1.313879 9.650680 0 0 0
82 1 82 -2.859926 -2.625879 8.915680 0 0 0
83 1 83 -6.610926 -1.041879 11.247680 0 0 0
84 1 84 -6.218456 2.029596 13.222163 0 0 0
85 1 85 -9.895926 -2.523879 9.973680 0 0 0
86 1 86 -10.652327 -6.772018 11.820522 0 0 0
87 1 87 -13.289926 -0.801879 10.177680 0 0 0
88 1 88 -13.852398 2.493436 10.441867 0 0 0
89 1 89 -16.784926 -2.114879 9.381680 0 0 0
90 1 90 -17.803426 -2.317379 11.777930 0 0 0
91 1 91 -19.430926 -0.710879 6.946680 0 0 0
92 1 92 -18.232593 0.590121 6.165347 0 0 0
93 1 93 -21.600926 -3.679879 5.856680 0 0 0
94 1 94 -22.512390 -3.595290 4.134233 0 0 0
95 1 95 -18.387926 -5.644879 5.344680 0 0 0
96 1 96 -14.808926 -4.984879 6.556680 0 0 0
97 1 97 -13.951926 -7.030379 7.467180 0 0 0
98 1 98 -12.379926 -2.223879 5.506680 0 0 0
99 1 99 -13.146420 1.243296 5.045970 0 0 0
100 1 100 -8.579926 -2.022879 5.855680 0 0 0
101 1 101 -9.351479 -5.725261 5.515201 0 0 0
102 1 102 -7.039926 1.420121 6.405680 0 0 0
103 1 103 -8.247926 2.549121 8.105680 0 0 0
104 1 104 -3.250926 1.130121 6.139680 0 0 0
105 1 105 -1.588676 0.162121 4.365180 0 0 0
106 1 106 -0.575926 3.880121 6.355680 0 0 0
107 1 107 -1.584817 4.506435 9.412249 0 0 0
108 1 108 2.275074 3.090121 3.931680 0 0 0
109 1 109 1.436074 2.625454 2.250014 0 0 0
110 1 110 5.482074 5.129121 3.553680 0 0 0
111 1 111 8.036969 6.189459 5.548394 0 0 0
112 1 112 6.439074 5.251121 -0.152320 0 0 0
113 1 113 4.425574 5.425371 -0.987570 0 0 0
114 1 114 9.469074 7.172121 -1.492320 0 0 0
115 1 115 11.165074 7.817121 -4.864320 0 0 0
116 1 116 8.820708 10.413108 -6.426720 0 0 0
117 1 117 14.252074 5.982121 -6.218320 0 0 0
118 1 118 14.180082 4.119517 -5.727862 0 0 0
119 1 119 16.347074 4.707121 -9.204320 0 0 0
120 1 120 18.208184 5.018753 -8.763137 0 0 0
121 1 121 14.580074 1.299121 -9.323320 0 0 0
122 1 122 15.766749 0.830712 -7.367549 0 0 0
123 1 123 11.447074 -0.002879 -11.107320 0 0 0
124 1 124 12.828074 -1.141546 -11.771986 0 0 0
125 1 125 8.991074 -0.560879 -8.232320 0 0 0
126 1 126 6.327507 -1.105814 -10.834568 0 0 0
127 1 127 10.173074 -3.357879 -5.884320 0 0 0
128 1 128 8.869540 -4.327681 -4.796002 0 0 0
129 1 129 12.618074 -5.520879 -7.887320 0 0 0
130 1 130 11.986668 -7.081992 -8.882615 0 0 0
131 1 131 14.236074 -4.601879 -11.228320 0 0 0
132 1 132 17.654074 -4.782879 -12.925320 0 0 0
133 1 133 16.819689 -3.403891 -14.851951 0 0 0
134 1 134 21.054074 -3.292879 -12.015320 0 0 0
135 1 135 21.024324 -1.196379 -13.560070 0 0 0
136 1 136 21.876074 -3.174879 -8.290320 0 0 0
137 1 137 22.550926 -5.680188 -8.689489 0 0 0
138 1 138 22.733074 -0.034879 -6.238320 0 0 0
139 1 139 23.021110 0.820511 -7.973302 0 0 0
140 1 140 19.113074 1.180121 -5.954320 0 0 0
141 1 141 17.565803 -0.508093 -6.373418 0 0 0
142 1 142 18.176074 3.998121 -3.520320 0 0 0
143 1 143 20.448048 4.903974 -1.513248 0 0 0
144 1 144 15.841074 6.990121 -3.084320 0 0 0
145 1 145 13.889931 5.276692 -0.931748 0 0 0
146 1 146 18.364074 9.245121 -4.919320 0 0 0
147 1 147 18.628755 12.319591 -5.684598 0 0 0
148 1 148 21.479074 9.508121 -2.676320 0 0 0
149 1 149 22.762522 11.487029 -1.834794 0 0 0
150 1 150 20.966074 8.712121 1.041680 0 0 0
151 1 151 23.832125 9.805597 1.568882 0 0 0
152 1 152 17.808074 10.644121 2.042680 0 0 0
153 1 153 17.462741 10.112454 0.238680 0 0 0
154 1 154 17.004074 8.299121 4.991680 0 0 0
155 1 155 19.553210 6.473158 5.966483 0 0 0
156 1 156 15.018074 11.332121 6.222680 0 0 0
157 1 157 17.474226 12.202881 8.181542 0 0 0
158 1 158 14.107074 13.145121 2.985680 0 0 0
159 1 159 15.365074 13.949121 2.675680 0 0 0
160 1 160 12.515074 12.509121 -0.431320 0 0 0
161 1 161 14.463582 13.833904 -2.631686 0 0 0
162 1 162 9.548074 10.419121 0.745680 0 0 0
163 1 163 12.489400 8.649104 2.456488 0 0 0
164 1 164 5.726074 10.312121 0.731680 0 0 0
165 1 165 5.558620 10.611267 -1.174682 0 0 0
166 1 166 3.183074 8.926121 3.228680 0 0 0
167 1 167 2.407773 9.523165 4.908363 0 0 0
168 1 168 -0.091926 7.387121 1.957680 0 0 0
169 1 169 -0.978009 6.703623 -0.093608 0 0 0
170 1 170 -3.000926 5.326121 3.300680 0 0 0
171 1 171 -3.758931 5.994694 4.956137 0 0 0
172 1 172 -4.875926 2.462121 1.604680 0 0 0
173 1 173 -2.015640 1.333406 0.212252 0 0 0
174 1 174 -8.597926 1.961121 2.227680 0 0 0
175 1 175 -9.667259 3.522454 2.623014 0 0 0
176 1 176 -9.438926 -1.590879 1.101680 0 0 0
177 1 177 -8.112593 -2.983879 0.929347 0 0 0
178 1 178 -12.928926 -3.094879 1.147680 0 0 0
179 1 179 -16.375805 -1.559350 1.877188 0 0 0
180 1 180 -13.691926 -6.807879 1.606680 0 0 0
181 1 181 -12.412499 -8.230563 2.013458 0 0 0
182 1 182 -16.892926 -8.799879 2.211680 0 0 0
183 1 183 -18.221426 -6.866379 2.593180 0 0 0
184 1 184 -17.593926 -12.362879 0.923680 0 0 0
185 1 185 -16.378593 -12.667213 2.364014 0 0 0
186 1 186 -20.953926 -12.455879 2.802680 0 0 0
187 1 187 -21.881054 -9.006846 3.879365 0 0 0
188 1 188 -22.915926 -10.475879 0.206680 0 0 0
189 1 189 -24.544926 -9.519129 1.948180 0 0 0
190 1 190 -20.608926 -10.214879 -2.873320 0 0 0
191 1 191 -20.992321 -10.108876 -5.340552 0 0 0
192 1 192 -18.149926 -7.356879 -2.151320 0 0 0
193 1 193 -19.541110 -5.259026 -2.515890 0 0 0
194 1 194 -14.480926 -6.408879 -2.302320 0 0 0
195 1 195 -12.956676 -7.769379 -2.371320 0 0 0
196 1 196 -12.792926 -3.257879 -3.676320 0 0 0
197 1 197 -15.228657 -2.107802 -6.072744 0 0 0
198 1 198 -10.055926 -0.658879 -3.170320 0 0 0
199 1 199 -7.860676 -0.359129 -3.165070 0 0 0
200 1 200 -11.396926 2.838121 -2.421320 0 0 0
201 1 201 -12.777676 4.190621 -0.772570 0 0 0
202 1 202 -8.042926 4.509121 -3.148320 0 0 0
203 1 203 -9.368203 7.556953 -2.579542 0 0 0
204 1 204 -4.653926 5.465121 -1.685320 0 0 0
205 1 205 -2.879996 4.696107 -1.928383 0 0 0
206 1 206 -4.924926 8.647121 0.416680 0 0 0
207 1 207 -7.257839 10.480083 2.775481 0 0 0
208 1 208 -1.373926 9.986121 -0.272320 0 0 0
209 1 209 -1.005370 8.236416 -1.793374 0 0 0
210 1 210 -1.390926 13.701121 0.653680 0 0 0
211 1 211 1.147798 15.743520 -0.355580 0 0 0

Bonds

1 1 1 2 # CA1-CA2
2 2 2 3 # CA2-SC2
3 3 2 4 # CA2-CA3
4 4 4 5 # CA3-SC3
5 5 4 6 # CA3-CA4
6 6 6 7 # CA4-SC4
7 7 6 8 # CA4-CA5
8 8 8 9 # CA5-SC5
9 9 8 10 # CA5-CA6
10 10 10 11 # CA6-SC6
11 11 10 12 # CA6-CA7
12 12 12 13 # CA7-SC7
13 13 12 14 # CA7-CA8
14 14 14 15 # CA8-SC8
15 15 14 16 # CA8-CA9
16 16 16 17 # CA9-SC9
17 17 16 18 # CA9-CA10
18 18 18 19 # CA10-SC10
19 19 18 20 # CA10-CA11
20 20 20 21 # CA11-SC11
21 21 20 22 # CA11-CA12
22 22 22 23 # CA12-CA13
23 23 23 24 # CA13-SC13
24 24 23 25 # CA13-CA14
25 25 25 26 # CA14-SC14
26 26 25 27 # CA14-CA15
27 27 27 28 # CA15-SC15
28 28 27 29 # CA15-CA16
29 29 29 30 # CA16-SC16
30 30 29 31 # CA16-CA17
31 31 31 32 # CA17-SC17
32 32 31 33 # CA17-CA18
33 33 33 34 # CA18-SC18
34 34 33 35 # CA18-CA19
35 35 35 36 # CA19-SC19
36 36 35 37 # CA19-CA20
37 37 37 38 # CA20-SC20
38 38 37 39 # CA20-CA21
39 39 39 40 # CA21-SC21
40 40 39 41 # CA21-CA22
41 41 41 42 # CA22-SC22
42 42 41 43 # CA22-CA23
43 43 43 44 # CA23-SC23
44 44 43 45 # CA23-CA24
45 45 45 46 # CA24-SC24
46 46 45 47 # CA24-CA25
47 47 47 48 # CA25-SC25
48 48 47 49 # CA25-CA26
49 49 49 50 # CA26-SC26
50 50 49 51 # CA26-CA27
51 51 51 52 # CA27-SC27
52 52 51 53 # CA27-CA28
53 53 53 54 # CA28-SC28
54 54 53 55 # CA28-CA29
55 55 55 56 # CA29-SC29
56 56 55 57 # CA29-CA30
57 57 57 58 # CA30-SC30
58 58 57 59 # CA30-CA31
59 59 59 60 # CA31-SC31
60 60 59 61 # CA31-CA32
61 61 61 62 # CA32-SC32
62 62 61 63 # CA32-CA33
63 63 63 64 # CA33-SC33
64 64 63 65 # CA33-CA34
65 65 65 66 # CA34-SC34
66 66 65 67 # CA34-CA35
67 67 67 68 # CA35-SC35
68 68 67 69 # CA35-CA36
69 69 69 70 # CA36-SC36
70 70 69 71 # CA36-CA37
71 71 71 72 # CA37-SC37
72 72 71 73 # CA37-CA38
73 73 73 74 # CA38-SC38
74 74 73 75 # CA38-CA39
75 75 75 76 # CA39-SC39
76 76 75 77 # CA39-CA40
77 77 77 78 # CA40-SC40
78 78 77 79 # CA40-CA41
79 79 79 80 # CA41-SC41
80 80 79 81 # CA41-CA42
81 81 81 82 # CA42-SC42
82 82 81 83 # CA42-CA43
83 83 83 84 # CA43-SC43
84 84 83 85 # CA43-CA44
85 85 85 86 # CA44-SC44
86 86 85 87 # CA44-CA45
87 87 87 88 # CA45-SC45
88 88 87 89 # CA45-CA46
89 89 89 90 # CA46-SC46
90 90 89 91 # CA46-CA47
91 91 91 92 # CA47-SC47
92 92 91 93 # CA47-CA48
93 93 93 94 # CA48-SC48
94 94 93 95 # CA48-CA49
95 95 95 96 # CA49-CA50
96 96 96 97 # CA50-SC50
97 97 96 98 # CA50-CA51
98 98 98 99 # CA51-SC51
99 99 98 100 # CA51-CA52
100 100 100 101 # CA52-SC52
101 101 100 102 # CA52-CA53
102 102 102 103 # CA53-SC53
103 103 102 104 # CA53-CA54
104 104 104 105 # CA54-SC54
105 105 104 106 # CA54-CA55
106 106 106 107 # CA55-SC55
107 107 106 108 # CA55-CA56
108 108 108 109 # CA56-SC56
109 109 108 110 # CA56-CA57
110 110 110 111 # CA57-SC57
111 111 110 112 # CA57-CA58
112 112 112 113 # CA58-SC58
113 113 112 114 # CA58-CA59
114 114 114 115 # CA59-CA60
115 115 115 116 # CA60-SC60
116 116 115 117 # CA60-CA61
117 117 117 118 # CA61-SC61
118 118 117 119 # CA61-CA62
119 119 119 120 # CA62-SC62
120 120 119 121 # CA62-CA63
121 121 121 122 # CA63-SC63
122 122 121 123 # CA63-CA64
123 123 123 124 # CA64-SC64
124 124 123 125 # CA64-CA65
125 125 125 126 # CA65-SC65
126 126 125 127 # CA65-CA66
127 127 127 128 # CA66-SC66
128 128 127 129 # CA66-CA67
129 129 129 130 # CA67-SC67
130 130 129 131 # CA67-CA68
131 131 131 132 # CA68-CA69
132 132 132 133 # CA69-SC69
133 133 132 134 # CA69-CA70
134 134 134 135 # CA70-SC70
135 135 134 136 # CA70-CA71
136 136 136 137 # CA71-SC71
137 137 136 138 # CA71-CA72
138 138 138 139 # CA72-SC72
139 139 138 140 # CA72-CA73
140 140 140 141 # CA73-SC73
141 141 140 142 # CA73-CA74
142 142 142 143 # CA74-SC74
143 143 142 144 # CA74-CA75
144 144 144 145 # CA75-SC75
145 145 144 146 # CA75-CA76
146 146 146 147 # CA76-SC76
147 147 146 148 # CA76-CA77
148 148 148 149 # CA77-SC77
149 149 148 150 # CA77-CA78
150 150 150 151 # CA78-SC78
151 151 150 152 # CA78-CA79
152 152 152 153 # CA79-SC79
153 153 152 154 # CA79-CA80
154 154 154 155 # CA80-SC80
155 155 154 156 # CA80-CA81
156 156 156 157 # CA81-SC81
157 157 156 158 # CA81-CA82
158 158 158 159 # CA82-SC82
159 159 158 160 # CA82-CA83
160 160 160 161 # CA83-SC83
161 161 160 162 # CA83-CA84
162 162 162 163 # CA84-SC84
163 163 162 164 # CA84-CA85
164 164 164 165 # CA85-SC85
165 165 164 166 # CA85-CA86
166 166 166 167 # CA86-SC86
167 167 166 168 # CA86-CA87
168 168 168 169 # CA87-SC87
169 169 168 170 # CA87-CA88
170 170 170 171 # CA88-SC88
171 171 170 172 # CA88-CA89
172 172 172 173 # CA89-SC89
173 173 172 174 # CA89-CA90
174 174 174 175 # CA90-SC90
175 175 174 176 # CA90-CA91
176 176 176 177 # CA91-SC91
177 177 176 178 # CA91-CA92
178 178 178 179 # CA92-SC92
179 179 178 180 # CA92-CA93
180 180 180 181 # CA93-SC93
181 181 180 182 # CA93-CA94
182 182 182 183 # CA94-SC94
183 183 182 184 # CA94-CA95
184 184 184 185 # CA95-SC95
185 185 184 186 # CA95-CA96
186 186 186 187 # CA96-SC96
187 187 186 188 # CA96-CA97
188 188 188 189 # CA97-SC97
189 189 188 190 # CA97-CA98
190 190 190 191 # CA98-SC98
191 191 190 192 # CA98-CA99
192 192 192 193 # CA99-SC99
193 193 192 194 # CA99-CA100
194 194 194 195 # CA100-SC100
195 195 194 196 # CA100-CA101
196 196 196 197 # CA101-SC101
197 197 196 198 # CA101-CA102
198 198 198 199 # CA102-SC102
199 199 198 200 # CA102-CA103
200 200 200 201 # CA103-SC103
201 201 200 202 # CA103-CA104
202 202 202 203 # CA104-SC104
203 203 202 204 # CA104-CA105
204 204 204 205 # CA105-SC105
205 205 204 206 # CA105-CA106
206 206 206 207 # CA106-SC106
207 207 206 208 # CA106-CA107
208 208 208 209 # CA107-SC107
209 209 208 210 # CA107-CA108
210 210 210 211 # CA108-SC108

Angles

1 1 1 2 3 # CA1-CA2-SC2
2 2 1 2 4 # CA1-CA2-CA3
3 3 3 2 4 # SC2-CA2-CA3
4 4 2 4 5 # CA2-CA3-SC3
5 5 2 4 6 # CA2-CA3-CA4
6 6 5 4 6 # SC3-CA3-CA4
7 7 4 6 7 # CA3-CA4-SC4
8 8 4 6 8 # CA3-CA4-CA5
9 9 7 6 8 # SC4-CA4-CA5
10 10 6 8 9 # CA4-CA5-SC5
11 11 6 8 10 # CA4-CA5-CA6
12 12 9 8 10 # SC5-CA5-CA6
13 13 8 10 11 # CA5-CA6-SC6
14 14 8 10 12 # CA5-CA6-CA7
15 15 11 10 12 # SC6-CA6-CA7
16 16 10 12 13 # CA6-CA7-SC7
17 17 10 12 14 # CA6-CA7-CA8
18 18 13 12 14 # SC7-CA7-CA8
19 19 12 14 15 # CA7-CA8-SC8
20 20 12 14 16 # CA7-CA8-CA9
21 21 15 14 16 # SC8-CA8-CA9
22 22 14 16 17 # CA8-CA9-SC9
23 23 14 16 18 # CA8-CA9-CA10
24 24 17 16 18 # SC9-CA9-CA10
25 25 16 18 19 # CA9-CA10-SC10
26 26 16 18 20 # CA9-CA10-CA11
27 27 19 18 20 # SC10-CA10-CA11
28 28 18 20 21 # CA10-CA11-SC11
29 29 18 20 22 # CA10-CA11-CA12
30 30 21 20 22 # SC11-CA11-CA12
31 31 20 22 23 # CA11-CA12-CA13
32 32 22 23 24 # CA12-CA13-SC13
33 33 22 23 25 # CA12-CA13-CA14
34 34 24 23 25 # SC13-CA13-CA14
35 35 23 25 26 # CA13-CA14-SC14
36 36 23 25 27 # CA13-CA14-CA15
37 37 26 25 27 # SC14-CA14-CA15
38 38 25 27 28 # CA14-CA15-SC15
39 39 25 27 29 # CA14-CA15-CA16
40 40 28 27 29 # SC15-CA15-CA16
41 41 27 29 30 # CA15-CA16-SC16
42 42 27 29 31 # CA15-CA16-CA17
43 43 30 29 31 # SC16-CA16-CA17
44 44 29 31 32 # CA16-CA17-SC17
45 45 29 31 33 # CA16-CA17-CA18
46 46 32 31 33 # SC17-CA17-CA18
47 47 31 33 34 # CA17-CA18-SC18
48 48 31 33 35 # CA17-CA18-CA19
49 49 34 33 35 # SC18-CA18-CA19
50 50 33 35 36 # CA18-CA19-SC19
51 51 33 35 37 # CA18-CA19-CA20
52 52 36 35 37 # SC19-CA19-CA20
53 53 35 37 38 # CA19-CA20-SC20
54 54 35 37 39 # CA19-CA20-CA21
55 55 38 37 39 # SC20-CA20-CA21
56 56 37 39 40 # CA20-CA21-SC21
57 57 37 39 41 # CA20-CA21-CA22
58 58 40 39 41 # SC21-CA21-CA22
59 59 39 41 42 # CA21-CA22-SC22
60 60 39 41 43 # CA21-CA22-CA23
61 61 42 41 43 # SC22-CA22-CA23
62 62 41 43 44 # CA22-CA23-SC23
63 63 41 43 45 # CA22-CA23-CA24
64 64 44 43 45 # SC23-CA23-CA24
65 65 43 45 46 # CA23-CA24-SC24
66 66 43 45 47 # CA23-CA24-CA25
67 67 46 45 47 # SC24-CA24-CA25
68 68 45 47 48 # CA24-CA25-SC25
69 69 45 47 49 # CA24-CA25-CA26
70 70 48 47 49 # SC25-CA25-CA26
71 71 47 49 50 # CA25-CA26-SC26
72 72 47 49 51 # CA25-CA26-CA27
73 73 50 49 51 # SC26-CA26-CA27
74 74 49 51 52 # CA26-CA27-SC27
75 75 49 51 53 # CA26-CA27-CA28
76 76 52 51 53 # SC27-CA27-CA28
77 77 51 53 54 # CA27-CA28-SC28
78 78 51 53 55 # CA27-CA28-CA29
79 79 54 53 55 # SC28-CA28-CA29
80 80 53 55 56 # CA28-CA29-SC29
81 81 53 55 57 # CA28-CA29-CA30
82 82 56 55 57 # SC29-CA29-CA30
83 83 55 57 58 # CA29-CA30-SC30
84 84 55 57 59 # CA29-CA30-CA31
85 85 58 57 59 # SC30-CA30-CA31
86 86 57 59 60 # CA30-CA31-SC31
87 87 57 59 61 # CA30-CA31-CA32
88 88 60 59 61 # SC31-CA31-CA32
89 89 59 61 62 # CA31-CA32-SC32
90 90 59 61 63 # CA31-CA32-CA33
91 91 62 61 63 # SC32-CA32-CA33
92 92 61 63 64 # CA32-CA33-SC33
93 93 61 63 65 # CA32-CA33-CA34
94 94 64 63 65 # SC33-CA33-CA34
95 95 63 65 66 # CA33-CA34-SC34
96 96 63 65 67 # CA33-CA34-CA35
97 97 66 65 67 # SC34-CA34-CA35
98 98 65 67 68 # CA34-CA35-SC35
99 99 65 67 69 # CA34-CA35-CA36
100 100 68 67 69 # SC35-CA35-CA36
101 101 67 69 70 # CA35-CA36-SC36
102 102 67 69 71 # CA35-CA36-CA37
103 103 70 69 71 # SC36-CA36-CA37
104 104 69 71 72 # CA36-CA37-SC37
105 105 69 71 73 # CA36-CA37-CA38
106 106 72 71 73 # SC37-CA37-CA38
107 107 71 73 74 # CA37-CA38-SC38
108 108 71 73 75 # CA37-CA38-CA39
109 109 74 73 75 # SC38-CA38-CA39
110 110 73 75 76 # CA38-CA39-SC39
111 111 73 75 77 # CA38-CA39-CA40
112 112 76 75 77 # SC39-CA39-CA40
113 113 75 77 78 # CA39-CA40-SC40
114 114 75 77 79 # CA39-CA40-CA41
115 115 78 77 79 # SC40-CA40-CA41
116 116 77 79 80 # CA40-CA41-SC41
117 117 77 79 81 # CA40-CA41-CA42
118 118 80 79 81 # SC41-CA41-CA42
119 119 79 81 82 # CA41-CA42-SC42
120 120 79 81 83 # CA41-CA42-CA43
121 121 82 81 83 # SC42-CA42-CA43
122 122 81 83 84 # CA42-CA43-SC43
123 123 81 83 85 # CA42-CA43-CA44
124 124 84 83 85 # SC43-CA43-CA44
125 125 83 85 86 # CA43-CA44-SC44
126 126 83 85 87 # CA43-CA44-CA45
127 127 86 85 87 # SC44-CA44-CA45
128 128 85 87 88 # CA44-CA45-SC45
129 129 85 87 89 # CA44-CA45-CA46
130 130 88 87 89 # SC45-CA45-CA46
131 131 87 89 90 # CA45-CA46-SC46
132 132 87 89 91 # CA45-CA46-CA47
133 133 90 89 91 # SC46-CA46-CA47
134 134 89 91 92 # CA46-CA47-SC47
135 135 89 91 93 # CA46-CA47-CA48
136 136 92 91 93 # SC47-CA47-CA48
137 137 91 93 94 # CA47-CA48-SC48
138 138 91 93 95 # CA47-CA48-CA49
139 139 94 93 95 # SC48-CA48-CA49
140 140 93 95 96 # CA48-CA49-CA50
141 141 95 96 97 # CA49-CA50-SC50
142 142 95 96 98 # CA49-CA50-CA51
143 143 97 96 98 # SC50-CA50-CA51
144 144 96 98 99 # CA50-CA51-SC51
145 145 96 98 100 # CA50-CA51-CA52
146 146 99 98 100 # SC51-CA51-CA52
147 147 98 100 101 # CA51-CA52-SC52
148 148 98 100 102 # CA51-CA52-CA53
149 149 101 100 102 # SC52-CA52-CA53
150 150 100 102 103 # CA52-CA53-SC53
151 151 100 102 104 # CA52-CA53-CA54
152 152 103 102 104 # SC53-CA53-CA54
153 153 102 104 105 # CA53-CA54-SC54
154 154 102 104 106 # CA53-CA54-CA55
155 155 105 104 106 # SC54-CA54-CA55
156 156 104 106 107 # CA54-CA55-SC55
157 157 104 106 108 # CA54-CA55-CA56
158 158 107 106 108 # SC55-CA55-CA56
159 159 106 108 109 # CA55-CA56-SC56
160 160 106 108 110 # CA55-CA56-CA57
161 161 109 108 110 # SC56-CA56-CA57
162 162 108 110 111 # CA56-CA57-SC57
163 163 108 110 112 # CA56-CA57-CA58
164 164 111 110 112 # SC57-CA57-CA58
165 165 110 112 113 # CA57-CA58-SC58
166 166 110 112 114 # CA57-CA58-CA59
167 167 113 112 114 # SC58-CA58-CA59
168 168 112 114 115 # CA58-CA59-CA60
169 169 114 115 116 # CA59-CA60-SC60
170 170 114 115 117 # CA59-CA60-CA61
171 171 116 115 117 # SC60-CA60-CA61
172 172 115 117 118 # CA60-CA61-SC61
173 173 115 117 119 # CA60-CA61-CA62
174 174 118 117 119 # SC61-CA61-CA62
175 175 117 119 120 # CA61-CA62-SC62
176 176 117 119 121 # CA61-CA62-CA63
177 177 120 119 121 # SC62-CA62-CA63
178 178 119 121 122 # CA62-CA63-SC63
179 179 119 121 123 # CA62-CA63-CA64
180 180 122 121 123 # SC63-CA63-CA64
181 181 121 123 124 # CA63-CA64-SC64
182 182 121 123 125 # CA63-CA64-CA65
183 183 124 123 125 # SC64-CA64-CA65
184 184 123 125 126 # CA64-CA65-SC65
185 185 123 125 127 # CA64-CA65-CA66
186 186 126 125 127 # SC65-CA65-CA66
187 187 125 127 128 # CA65-CA66-SC66
188 188 125 127 129 # CA65-CA66-CA67
189 189 128 127 129 # SC66-CA66-CA67
190 190 127 129 130 # CA66-CA67-SC67
191 191 127 129 131 # CA66-CA67-CA68
192 192 130 129 131 # SC67-CA67-CA68
193 193 129 131 132 # CA67-CA68-CA69
194 194 131 132 133 # CA68-CA69-SC69
195 195 131 132 134 # CA68-CA69-CA70
196 196 133 132 134 # SC69-CA69-CA70
197 197 132 134 135 # CA69-CA70-SC70
198 198 132 134 136 # CA69-CA70-CA71
199 199 135 134 136 # SC70-CA70-CA71
200 200 134 136 137 # CA70-CA71-SC71
201 201 134 136 138 # CA70-CA71-CA72
202 202 137 136 138 # SC71-CA71-CA72
203 203 136 138 139 # CA71-CA72-SC72
204 204 136 138 140 # CA71-CA72-CA73
205 205 139 138 140 # SC72-CA72-CA73
206 206 138 140 141 # CA72-CA73-SC73
207 207 138 140 142 # CA72-CA73-CA74
208 208 141 140 142 # SC73-CA73-CA74
209 209 140 142 143 # CA73-CA74-SC74
210 210 140 142 144 # CA73-CA74-CA75
211 211 143 142 144 # SC74-CA74-CA75
212 212 142 144 145 # CA74-CA75-SC75
213 213 142 144 146 # CA74-CA75-CA76
214 214 145 144 146 # SC75-CA75-CA76
215 215 144 146 147 # CA75-CA76-SC76
216 216 144 146 148 # CA75-CA76-CA77
217 217 147 146 148 # SC76-CA76-CA77
218 218 146 148 149 # CA76-CA77-SC77
219 219 146 148 150 # CA76-CA77-CA78
220 220 149 148 150 # SC77-CA77-CA78
221 221 148 150 151 # CA77-CA78-SC78
222 222 148 150 152 # CA77-CA78-CA79
223 223 151 150 152 # SC78-CA78-CA79
224 224 150 152 153 # CA78-CA79-SC79
225 225 150 152 154 # CA78-CA79-CA80
226 226 153 152 154 # SC79-CA79-CA80
227 227 152 154 155 # CA79-CA80-SC80
228 228 152 154 156 # CA79-CA80-CA81
229 229 155 154 156 # SC80-CA80-CA81
230 230 154 156 157 # CA80-CA81-SC81
231 231 154 156 158 # CA80-CA81-CA82
232 232 157 156 158 # SC81-CA81-CA82
233 233 156 158 159 # CA81-CA82-SC82
234 234 156 158 160 # CA81-CA82-CA83
235 235 159 158 160 # SC82-CA82-CA83
236 236 158 160 161 # CA82-CA83-SC83
237 237 158 160 162 # CA82-CA83-CA84
238 238 161 160 162 # SC83-CA83-CA84
239 239 160 162 163 # CA83-CA84-SC84
240 240 160 162 164 # CA83-CA84-CA85
241 241 163 162 164 # SC84-CA84-CA85
242 242 162 164 165 # CA84-CA85-SC85
243 243 162 164 166 # CA84-CA85-CA86
244 244 165 164 166 # SC85-CA85-CA86
245 245 164 166 167 # CA85-CA86-SC86
246 246 164 166 168 # CA85-CA86-CA87
247 247 167 166 168 # SC86-CA86-CA87
248 248 166 168 169 # CA86-CA87-SC87
249 249 166 168 170 # CA86-CA87-CA88
250 250 169 168 170 # SC87-CA87-CA88
251 251 168 170 171 # CA87-CA88-SC88
252 252 168 170 172 # CA87-CA88-CA89
253 253 171 170 172 # SC88-CA88-CA89
254 254 170 172 173 # CA88-CA89-SC89
255 255 170 172 174 # CA88-CA89-CA90
256 256 173 172 174 # SC89-CA89-CA90
257 257 172 174 175 # CA89-CA90-SC90
258 258 172 174 176 # CA89-CA90-CA91
259 259 175 174 176 # SC90-CA90-CA91
260 260 174 176 177 # CA90-CA91-SC91
261 261 174 176 178 # CA90-CA91-CA92
262 262 177 176 178 # SC91-CA91-CA92
263 263 176 178 179 # CA91-CA92-SC92
264 264 176 178 180 # CA91-CA92-CA93
265 265 179 178 180 # SC92-CA92-CA93
266 266 178 180 181 # CA92-CA93-SC93
267 267 178 180 182 # CA92-CA93-CA94
268 268 181 180 182 # SC93-CA93-CA94
269 269 180 182 183 # CA93-CA94-SC94
270 270 180 182 184 # CA93-CA94-CA95
271 271 183 182 184 # SC94-CA94-CA95
272 272 182 184 185 # CA94-CA95-SC95
273 273 182 184 186 # CA94-CA95-CA96
274 274 185 184 186 # SC95-CA95-CA96
275 275 184 186 187 # CA95-CA96-SC96
276 276 184 186 188 # CA95-CA96-CA97
277 277 187 186 188 # SC96-CA96-CA97
278 278 186 188 189 # CA96-CA97-SC97
279 279 186 188 190 # CA96-CA97-CA98
280 280 189 188 190 # SC97-CA97-CA98
281 281 188 190 191 # CA97-CA98-SC98
282 282 188 190 192 # CA97-CA98-CA99
283 283 191 190 192 # SC98-CA98-CA99
284 284 190 192 193 # CA98-CA99-SC99
285 285 190 192 194 # CA98-CA99-CA100
286 286 193 192 194 # SC99-CA99-CA100
287 287 192 194 195 # CA99-CA100-SC100
288 288 192 194 196 # CA99-CA100-CA101
289 289 195 194 196 # SC100-CA100-CA101
290 290 194 196 197 # CA100-CA101-SC101
291 291 194 196 198 # CA100-CA101-CA102
292 292 197 196 198 # SC101-CA101-CA102
293 293 196 198 199 # CA101-CA102-SC102
294 294 196 198 200 # CA101-CA102-CA103
295 295 199 198 200 # SC102-CA102-CA103
296 296 198 200 201 # CA102-CA103-SC103
297 297 198 200 202 # CA102-CA103-CA104
298 298 201 200 202 # SC103-CA103-CA104
299 299 200 202 203 # CA103-CA104-SC104
300 300 200 202 204 # CA103-CA104-CA105
301 301 203 202 204 # SC104-CA104-CA105
302 302 202 204 205 # CA104-CA105-SC105
303 303 202 204 206 # CA104-CA105-CA106
304 304 205 204 206 # SC105-CA105-CA106
305 305 204 206 207 # CA105-CA106-SC106
306 306 204 206 208 # CA105-CA106-CA107
307 307 207 206 208 # SC106-CA106-CA107
308 308 206 208 209 # CA106-CA107-SC107
309 309 206 208 210 # CA106-CA107-CA108
310 310 209 208 210 # SC107-CA107-CA108
311 311 208 210 211 # CA107-CA108-SC108

Dihedrals

1 1 1 2 4 5 # CA1-CA2-CA3-SC3-n1
2 2 1 2 4 5 # CA1-CA2-CA3-SC3-n3
3 3 1 2 4 6 # CA1-CA2-CA3-CA4-n1
4 4 1 2 4 6 # CA1-CA2-CA3-CA4-n3
5 5 3 2 4 5 # SC2-CA2-CA3-SC3-n1
6 6 3 2 4 5 # SC2-CA2-CA3-SC3-n3
7 7 3 2 4 6 # SC2-CA2-CA3-CA4-n1
8 8 3 2 4 6 # SC2-CA2-CA3-CA4-n3
9 9 2 4 6 7 # CA2-CA3-CA4-SC4-n1
10 10 2 4 6 7 # CA2-CA3-CA4-SC4-n3
11 11 2 4 6 8 # CA2-CA3-CA4-CA5-n1
12 12 2 4 6 8 # CA2-CA3-CA4-CA5-n3
13 13 5 4 6 7 # SC3-CA3-CA4-SC4-n1
14 14 5 4 6 7 # SC3-CA3-CA4-SC4-n3
15 15 5 4 6 8 # SC3-CA3-CA4-CA5-n1
16 16 5 4 6 8 # SC3-CA3-CA4-CA5-n3
17 17 4 6 8 9 # CA3-CA4-CA5-SC5-n1
18 18 4 6 8 9 # CA3-CA4-CA5-SC5-n3
19 19 4 6 8 10 # CA3-CA4-CA5-CA6-n1
20 20 4 6 8 10 # CA3-CA4-CA5-CA6-n3
21 21 7 6 8 9 # SC4-CA4-CA5-SC5-n1
22 22 7 6 8 9 # SC4-CA4-CA5-SC5-n3
23 23 7 6 8 10 # SC4-CA4-CA5-CA6-n1
24 24 7 6 8 10 # SC4-CA4-CA5-CA6-n3
25 25 6 8 10 11 # CA4-CA5-CA6-SC6-n1
26 26 6 8 10 11 # CA4-CA5-CA6-SC6-n3
27 27 6 8 10 12 # CA4-CA5-CA6-CA7-n1
28 28 6 8 10 12 # CA4-CA5-CA6-CA7-n3
29 29 9 8 10 11 # SC5-CA5-CA6-SC6-n1
30 30 9 8 10 11 # SC5-CA5-CA6-SC6-n3
31 31 9 8 10 12 # SC5-CA5-CA6-CA7-n1
32 32 9 8 10 12 # SC5-CA5-CA6-CA7-n3
33 33 8 10 12 13 # CA5-CA6-CA7-SC7-n1
34 34 8 10 12 13 # CA5-CA6-CA7-SC7-n3
35 35 8 10 12 14 # CA5-CA6-CA7-CA8-n1
36 36 8 10 12 14 # CA5-CA6-CA7-CA8-n3
37 37 11 10 12 13 # SC6-CA6-CA7-SC7-n1
38 38 11 10 12 13 # SC6-CA6-CA7-SC7-n3
39 39 11 10 12 14 # SC6-CA6-CA7-CA8-n1
40 40 11 10 12 14 # SC6-CA6-CA7-CA8-n3
41 41 10 12 14 15 # CA6-CA7-CA8-SC8-n1
42 42 10 12 14 15 # CA6-CA7-CA8-SC8-n3
43 43 10 12 14 16 # CA6-CA7-CA8-CA9-n1
44 44 10 12 14 16 # CA6-CA7-CA8-CA9-n3
45 45 13 12 14 15 # SC7-CA7-CA8-SC8-n1
46 46 13 12 14 15 # SC7-CA7-CA8-SC8-n3
47 47 13 12 14 16 # SC7-CA7-CA8-CA9-n1
48 48 13 12 14 16 # SC7-CA7-CA8-CA9-n3
49 49 12 14 16 17 # CA7-CA8-CA9-SC9-n1
50 50 12 14 16 17 # CA7-CA8-CA9-SC9-n3
51 51 12 14 16 18 # CA7-CA8-CA9-CA10-n1
52 52 12 14 16 18 # CA7-CA8-CA9-CA10-n3
53 53 15 14 16 17 # SC8-CA8-CA9-SC9-n1
54 54 15 14 16 17 # SC8-CA8-CA9-SC9-n3
55 55 15 14 16 18 # SC8-CA8-CA9-CA10-n1
56 56 15 14 16 18 # SC8-CA8-CA9-CA10-n3
57 57 14 16 18 19 # CA8-CA9-CA10-SC10-n1
58 58 14 16 18 19 # CA8-CA9-CA10-SC10-n3
59 59 14 16 18 20 # CA8-CA9-CA10-CA11-n1
60 60 14 16 18 20 # CA8-CA9-CA10-CA11-n3
61 61 17 16 18 19 # SC9-CA9-CA10-SC10-n1
62 62 17 16 18 19 # SC9-CA9-CA10-SC10-n3
63 63 17 16 18 20 # SC9-CA9-CA10-CA11-n1
64 64 17 16 18 20 # SC9-CA9-CA10-CA11-n3
65 65 16 18 20 21 # CA9-CA10-CA11-SC11-n1
66 66 16 18 20 21 # CA9-CA10-CA11-SC11-n3
67 67 16 18 20 22 # CA9-CA10-CA11-CA12-n1