LAMMPS data file

185 atoms
185 bonds
270 angles
578 dihedrals

185 atom types
185 bond types
270 angle types
578 dihedral types

-200.000000 200.000000 xlo xhi
-200.000000 200.000000 ylo yhi
-200.000000 200.000000 zlo zhi

Masses

1 1.0
2 1.0
3 1.0
4 1.0
5 1.0
6 1.0
7 1.0
8 1.0
9 1.0
10 1.0
11 1.0
12 1.0
13 1.0
14 1.0
15 1.0
16 1.0
17 1.0
18 1.0
19 1.0
20 1.0
21 1.0
22 1.0
23 1.0
24 1.0
25 1.0
26 1.0
27 1.0
28 1.0
29 1.0
30 1.0
31 1.0
32 1.0
33 1.0
34 1.0
35 1.0
36 1.0
37 1.0
38 1.0
39 1.0
40 1.0
41 1.0
42 1.0
43 1.0
44 1.0
45 1.0
46 1.0
47 1.0
48 1.0
49 1.0
50 1.0
51 1.0
52 1.0
53 1.0
54 1.0
55 1.0
56 1.0
57 1.0
58 1.0
59 1.0
60 1.0
61 1.0
62 1.0
63 1.0
64 1.0
65 1.0
66 1.0
67 1.0
68 1.0
69 1.0
70 1.0
71 1.0
72 1.0
73 1.0
74 1.0
75 1.0
76 1.0
77 1.0
78 1.0
79 1.0
80 1.0
81 1.0
82 1.0
83 1.0
84 1.0
85 1.0
86 1.0
87 1.0
88 1.0
89 1.0
90 1.0
91 1.0
92 1.0
93 1.0
94 1.0
95 1.0
96 1.0
97 1.0
98 1.0
99 1.0
100 1.0
101 1.0
102 1.0
103 1.0
104 1.0
105 1.0
106 1.0
107 1.0
108 1.0
109 1.0
110 1.0
111 1.0
112 1.0
113 1.0
114 1.0
115 1.0
116 1.0
117 1.0
118 1.0
119 1.0
120 1.0
121 1.0
122 1.0
123 1.0
124 1.0
125 1.0
126 1.0
127 1.0
128 1.0
129 1.0
130 1.0
131 1.0
132 1.0
133 1.0
134 1.0
135 1.0
136 1.0
137 1.0
138 1.0
139 1.0
140 1.0
141 1.0
142 1.0
143 1.0
144 1.0
145 1.0
146 1.0
147 1.0
148 1.0
149 1.0
150 1.0
151 1.0
152 1.0
153 1.0
154 1.0
155 1.0
156 1.0
157 1.0
158 1.0
159 1.0
160 1.0
161 1.0
162 1.0
163 1.0
164 1.0
165 1.0
166 1.0
167 1.0
168 1.0
169 1.0
170 1.0
171 1.0
172 1.0
173 1.0
174 1.0
175 1.0
176 1.0
177 1.0
178 1.0
179 1.0
180 1.0
181 1.0
182 1.0
183 1.0
184 1.0
185 1.0

Atoms

1 1 1 10.408135 5.475140 7.062913 0 0 0
2 1 2 9.962885 7.537390 8.196913 0 0 0
3 1 3 9.359135 1.911140 6.318913 0 0 0
4 1 4 7.507885 1.176390 5.969413 0 0 0
5 1 5 12.696135 0.840140 4.809913 0 0 0
6 1 6 12.989885 -1.337860 3.395413 0 0 0
7 1 7 15.471135 3.418140 5.154913 0 0 0
8 1 8 15.279239 4.691389 7.364376 0 0 0
9 1 9 17.400135 3.120140 1.922913 0 0 0
10 1 10 15.962135 -0.278860 0.985913 0 0 0
11 1 11 15.880123 -1.704584 -1.143320 0 0 0
12 1 12 17.258135 -2.668860 3.639913 0 0 0
13 1 13 18.802635 -1.227110 5.169413 0 0 0
14 1 14 14.649135 -5.289860 2.816913 0 0 0
15 1 15 12.357135 -5.773360 1.686913 0 0 0
16 1 16 15.942135 -8.545860 4.238913 0 0 0
17 1 17 17.672684 -7.606486 6.772086 0 0 0
18 1 18 12.729135 -9.923860 5.677913 0 0 0
19 1 19 14.135859 -10.702049 7.678169 0 0 0
20 1 20 9.541135 -9.022860 3.836913 0 0 0
21 1 21 9.249263 -9.709240 0.470492 0 0 0
22 1 22 6.973135 -11.773860 3.415913 0 0 0
23 1 23 4.428135 -11.684110 2.806663 0 0 0
24 1 24 7.204135 -15.551860 3.331913 0 0 0
25 1 25 9.688641 -17.332034 2.941866 0 0 0
26 1 26 3.557135 -15.951860 4.176913 0 0 0
27 1 27 3.717885 -15.916360 6.759413 0 0 0
28 1 28 0.176135 -15.575860 2.402913 0 0 0
29 1 29 -0.115865 -17.130193 3.428579 0 0 0
30 1 30 -1.901865 -12.401860 2.676913 0 0 0
31 1 31 -3.855865 -12.183860 2.762913 0 0 0
32 1 32 -0.574865 -10.251860 5.491913 0 0 0
33 1 33 1.386635 -8.913110 5.092163 0 0 0
34 1 34 -3.038865 -9.335860 8.254913 0 0 0
35 1 35 -4.095673 -9.389290 10.571323 0 0 0
36 1 36 -5.351865 -6.469860 7.323913 0 0 0
37 1 37 -7.637534 -6.869274 8.408405 0 0 0
38 1 38 -4.344865 -4.921860 10.650913 0 0 0
39 1 39 -3.965115 -5.166860 13.250163 0 0 0
40 1 40 -0.825865 -4.482860 9.278913 0 0 0
41 1 41 2.378278 -4.897860 8.203770 0 0 0
42 1 42 -2.275865 -2.811860 6.212913 0 0 0
43 1 43 -4.479865 -0.684860 8.431913 0 0 0
44 1 44 -7.575047 -0.655984 8.619219 0 0 0
45 1 45 -1.276865 0.327140 10.186913 0 0 0
46 1 46 -0.927902 -0.321180 12.807187 0 0 0
47 1 47 0.316135 1.246140 6.864913 0 0 0
48 1 48 1.430885 -0.648610 5.448413 0 0 0
49 1 49 -2.733865 3.206140 5.743913 0 0 0
50 1 50 -4.381615 2.009640 4.066663 0 0 0
51 1 51 -2.868865 4.732140 9.252913 0 0 0
52 1 52 -3.023497 4.872242 11.794165 0 0 0
53 1 53 0.718135 5.959140 9.091913 0 0 0
54 1 54 3.370499 3.750762 10.257735 0 0 0
55 1 55 0.539135 6.904140 5.419913 0 0 0
56 1 56 3.050135 4.834426 4.512198 0 0 0
57 1 57 -2.912865 8.348140 6.018913 0 0 0
58 1 58 -5.234485 8.787802 8.499998 0 0 0
59 1 59 -1.406865 11.822140 5.962913 0 0 0
60 1 60 0.023641 13.813483 6.690666 0 0 0
61 1 61 0.145135 11.101140 2.560913 0 0 0
62 1 62 2.629915 10.433418 2.544919 0 0 0
63 1 63 -2.953865 9.412140 1.178913 0 0 0
64 1 64 -3.450115 7.155640 1.765413 0 0 0
65 1 65 -5.051865 12.315140 2.433913 0 0 0
66 1 66 -6.514298 14.678642 4.144456 0 0 0
67 1 67 -2.577865 14.928140 1.279913 0 0 0
68 1 68 -0.365732 16.205467 1.152381 0 0 0
69 1 69 -2.198865 13.436140 -2.191087 0 0 0
70 1 70 0.824447 11.558017 -1.700068 0 0 0
71 1 71 -5.687865 12.082140 -2.837087 0 0 0
72 1 72 -3.503736 9.060221 -3.961547 0 0 0
73 1 73 -7.758865 13.155140 0.135913 0 0 0
74 1 74 -8.812865 9.839140 1.614913 0 0 0
75 1 75 -8.328532 8.288807 0.518246 0 0 0
76 1 76 -9.802865 8.407140 4.978913 0 0 0
77 1 77 -11.238137 8.090467 7.037698 0 0 0
78 1 78 -7.927865 5.192140 5.721913 0 0 0
79 1 79 -6.042959 5.578320 6.054622 0 0 0
80 1 80 -10.135865 4.323140 8.670913 0 0 0
81 1 81 -12.422455 5.189192 11.351446 0 0 0
82 1 82 -12.990865 3.535140 6.284913 0 0 0
83 1 83 -14.882278 3.932055 4.630218 0 0 0
84 1 84 -10.742865 1.655140 3.846913 0 0 0
85 1 85 -8.975115 3.124640 2.671663 0 0 0
86 1 86 -11.781865 -1.973860 3.782913 0 0 0
87 1 87 -14.798013 -4.285571 2.829686 0 0 0
88 1 88 -8.645865 -4.055860 3.364913 0 0 0
89 1 89 -6.625865 -3.538860 4.532163 0 0 0
90 1 90 -8.941865 -7.126860 1.190913 0 0 0
91 1 91 -10.338115 -6.022610 -0.714087 0 0 0
92 1 92 -5.331865 -8.233860 0.926913 0 0 0
93 1 93 -3.390105 -10.366759 -1.353787 0 0 0
94 1 94 -2.315865 -6.748860 2.645913 0 0 0
95 1 95 -2.286368 -5.936926 4.428246 0 0 0
96 1 96 0.870135 -7.662860 0.812913 0 0 0
97 1 97 -0.083490 -9.111938 -0.135458 0 0 0
98 1 98 3.936135 -6.268860 -0.935087 0 0 0
99 1 99 6.410697 -6.794134 0.607008 0 0 0
100 1 100 6.507135 -7.161860 -3.583087 0 0 0
101 1 101 4.988099 -7.424792 -5.609113 0 0 0
102 1 102 9.947135 -5.589860 -3.261087 0 0 0
103 1 103 12.162415 -7.078656 -4.117929 0 0 0
104 1 104 10.475135 -1.860860 -2.840087 0 0 0
105 1 105 14.710034 -1.457835 -4.886662 0 0 0
106 1 106 6.736135 -1.316860 -2.571087 0 0 0
107 1 107 7.238563 0.230140 -5.634373 0 0 0
108 1 108 3.840135 -2.271860 -0.329087 0 0 0
109 1 109 5.166031 -2.435432 3.330485 0 0 0
110 1 110 0.599135 -3.402860 -1.931087 0 0 0
111 1 111 2.674614 -3.215334 -5.180053 0 0 0
112 1 112 -2.560865 -3.181860 0.151913 0 0 0
113 1 113 -2.508199 -2.354193 1.927579 0 0 0
114 1 114 -5.686865 -4.203860 -1.766087 0 0 0
115 1 115 -5.337971 -5.867609 -2.765200 0 0 0
116 1 116 -8.625865 -2.311860 -0.302087 0 0 0
117 1 117 -7.744865 -0.769527 0.517246 0 0 0
118 1 118 -12.220865 -1.573860 -1.129087 0 0 0
119 1 119 -14.696681 -2.057501 -1.479216 0 0 0
120 1 120 -12.333865 2.208140 -1.324087 0 0 0
121 1 121 -11.777865 2.989140 -2.507087 0 0 0
122 1 122 -16.093865 2.229140 -0.768087 0 0 0
123 1 123 -16.227865 3.954140 -4.131087 0 0 0
124 1 124 -15.444510 5.793884 -5.747208 0 0 0
125 1 125 -16.545865 0.593140 -5.846087 0 0 0
126 1 126 -12.857865 0.566140 -6.635087 0 0 0
127 1 127 -10.599837 1.108341 -8.165296 0 0 0
128 1 128 -10.541865 -2.029860 -5.144087 0 0 0
129 1 129 -13.011135 -4.681262 -4.729651 0 0 0
130 1 130 -7.184865 -0.316860 -5.110087 0 0 0
131 1 131 -6.001073 1.740586 -5.366059 0 0 0
132 1 132 -3.976865 -1.996860 -4.083087 0 0 0
133 1 133 -2.572337 -5.147804 -5.300304 0 0 0
134 1 134 -2.216865 0.789140 -2.156087 0 0 0
135 1 135 -4.281865 2.918426 -0.556230 0 0 0
136 1 136 1.316135 1.063140 -3.442087 0 0 0
137 1 137 2.695141 1.968379 -6.500445 0 0 0
138 1 138 3.460135 2.241140 -0.601087 0 0 0
139 1 139 2.612635 2.147390 1.620663 0 0 0
140 1 140 6.864135 2.711140 -2.149087 0 0 0
141 1 141 9.516074 4.441181 -5.614961 0 0 0
142 1 142 9.034135 1.806140 0.779913 0 0 0
143 1 143 8.893494 -1.904038 1.150203 0 0 0
144 1 144 11.635135 4.278140 2.072913 0 0 0
145 1 145 12.299902 6.004208 3.849782 0 0 0
146 1 146 13.955135 2.529140 -0.396087 0 0 0
147 1 147 12.918135 1.216140 -1.403421 0 0 0
148 1 148 14.321135 5.712140 -2.351087 0 0 0
149 1 149 14.068603 6.182867 -4.866500 0 0 0
150 1 150 11.450135 8.025140 -1.477087 0 0 0
151 1 151 10.007135 7.776140 -2.771087 0 0 0
152 1 152 10.433135 9.163140 2.022913 0 0 0
153 1 153 10.958135 10.765473 1.227579 0 0 0
154 1 154 6.738135 8.506140 1.363913 0 0 0
155 1 155 6.451229 10.732652 -1.443026 0 0 0
156 1 156 4.175135 6.327140 -0.363087 0 0 0
157 1 157 1.055720 6.918757 0.039286 0 0 0
158 1 158 4.451135 6.735140 -4.120087 0 0 0
159 1 159 5.302801 5.676140 -5.530754 0 0 0
160 1 160 1.003135 5.656140 -5.230087 0 0 0
161 1 161 -1.641865 2.977140 -5.149087 0 0 0
162 1 162 -4.834002 5.843425 -5.729803 0 0 0
163 1 163 -2.171865 0.192140 -7.656087 0 0 0
164 1 164 -0.879677 -1.756605 -9.988085 0 0 0
165 1 165 -5.882865 0.575140 -8.308087 0 0 0
166 1 166 -6.369621 2.772131 -7.454867 0 0 0
167 1 167 -7.866865 -0.821860 -11.236087 0 0 0
168 1 168 -5.894408 0.621454 -14.994989 0 0 0
169 1 169 -9.716865 -3.936860 -10.184087 0 0 0
170 1 170 -12.761858 -2.937508 -9.796644 0 0 0
171 1 171 -10.231865 -6.361860 -13.054087 0 0 0
172 1 172 -12.764116 -6.600612 -12.989338 0 0 0
173 1 173 -7.773865 -5.266860 -15.718087 0 0 0
174 1 174 -7.253727 -5.702805 -18.173234 0 0 0
175 1 175 -4.849865 -2.922860 -15.164087 0 0 0
176 1 176 -3.270323 -4.081897 -13.493725 0 0 0
177 1 177 -2.097865 -1.801860 -17.535087 0 0 0
178 1 178 -1.679782 -0.673137 -19.797077 0 0 0
179 1 179 0.176135 0.628140 -15.694087 0 0 0
180 1 180 -0.814476 2.995833 -15.717703 0 0 0
181 1 181 2.960135 -1.282860 -13.981087 0 0 0
182 1 182 4.977132 -2.790295 -13.767619 0 0 0
183 1 183 3.977135 1.626140 -11.828087 0 0 0
184 1 184 1.489135 4.140140 -10.482087 0 0 0
185 1 185 -1.751963 4.257526 -9.958373 0 0 0

Bonds

1 1 1 2 # CA1-SC1
2 2 1 3 # CA1-CA2
3 3 3 4 # CA2-SC2
4 4 3 5 # CA2-CA3
5 5 5 6 # CA3-SC3
6 6 5 7 # CA3-CA4
7 7 7 8 # CA4-SC4
8 8 7 9 # CA4-CA5
9 9 9 10 # CA5-CA6
10 10 10 11 # CA6-SC6
11 11 10 12 # CA6-CA7
12 12 12 13 # CA7-SC7
13 13 12 14 # CA7-CA8
14 14 14 15 # CA8-SC8
15 15 14 16 # CA8-CA9
16 16 16 17 # CA9-SC9
17 17 16 18 # CA9-CA10
18 18 18 19 # CA10-SC10
19 19 18 20 # CA10-CA11
20 20 20 21 # CA11-SC11
21 21 20 22 # CA11-CA12
22 22 22 23 # CA12-SC12
23 23 22 24 # CA12-CA13
24 24 24 25 # CA13-SC13
25 25 24 26 # CA13-CA14
26 26 26 27 # CA14-SC14
27 27 26 28 # CA14-CA15
28 28 28 29 # CA15-SC15
29 29 28 30 # CA15-CA16
30 30 30 31 # CA16-SC16
31 31 30 32 # CA16-CA17
32 32 32 33 # CA17-SC17
33 33 32 34 # CA17-CA18
34 34 34 35 # CA18-SC18
35 35 34 36 # CA18-CA19
36 36 36 37 # CA19-SC19
37 37 36 38 # CA19-CA20
38 38 38 39 # CA20-SC20
39 39 38 40 # CA20-CA21
40 40 40 41 # CA21-SC21
41 41 40 42 # CA21-CA22
42 42 42 43 # CA22-CA23
43 43 43 44 # CA23-SC23
44 44 43 45 # CA23-CA24
45 45 45 46 # CA24-SC24
46 46 45 47 # CA24-CA25
47 47 47 48 # CA25-SC25
48 48 47 49 # CA25-CA26
49 49 49 50 # CA26-SC26
50 50 49 51 # CA26-CA27
51 51 51 52 # CA27-SC27
52 52 51 53 # CA27-CA28
53 53 53 54 # CA28-SC28
54 54 53 55 # CA28-CA29
55 55 55 56 # CA29-SC29
56 56 55 57 # CA29-CA30
57 57 57 58 # CA30-SC30
58 58 57 59 # CA30-CA31
59 59 59 60 # CA31-SC31
60 60 59 61 # CA31-CA32
61 61 61 62 # CA32-SC32
62 62 61 63 # CA32-CA33
63 63 63 64 # CA33-SC33
64 64 63 65 # CA33-CA34
65 65 65 66 # CA34-SC34
66 66 65 67 # CA34-CA35
67 67 67 68 # CA35-SC35
68 68 67 69 # CA35-CA36
69 69 69 70 # CA36-SC36
70 70 69 71 # CA36-CA37
71 71 71 72 # CA37-SC37
72 72 71 73 # CA37-CA38
73 73 73 74 # CA38-CA39
74 74 74 75 # CA39-SC39
75 75 74 76 # CA39-CA40
76 76 76 77 # CA40-SC40
77 77 76 78 # CA40-CA41
78 78 78 79 # CA41-SC41
79 79 78 80 # CA41-CA42
80 80 80 81 # CA42-SC42
81 81 80 82 # CA42-CA43
82 82 82 83 # CA43-SC43
83 83 82 84 # CA43-CA44
84 84 84 85 # CA44-SC44
85 85 84 86 # CA44-CA45
86 86 86 87 # CA45-SC45
87 87 86 88 # CA45-CA46
88 88 88 89 # CA46-SC46
89 89 88 90 # CA46-CA47
90 90 90 91 # CA47-SC47
91 91 90 92 # CA47-CA48
92 92 92 93 # CA48-SC48
93 93 92 94 # CA48-CA49
94 94 94 95 # CA49-SC49
95 95 94 96 # CA49-CA50
96 96 96 97 # CA50-SC50
97 97 96 98 # CA50-CA51
98 98 98 99 # CA51-SC51
99 99 98 100 # CA51-CA52
100 100 100 101 # CA52-SC52
101 101 100 102 # CA52-CA53
102 102 102 103 # CA53-SC53
103 103 102 104 # CA53-CA54
104 104 104 105 # CA54-SC54
105 105 104 106 # CA54-CA55
106 106 106 107 # CA55-SC55
107 107 106 108 # CA55-CA56
108 108 108 109 # CA56-SC56
109 109 108 110 # CA56-CA57
110 110 110 111 # CA57-SC57
111 111 110 112 # CA57-CA58
112 112 112 113 # CA58-SC58
113 113 112 114 # CA58-CA59
114 114 114 115 # CA59-SC59
115 115 114 116 # CA59-CA60
116 116 116 117 # CA60-SC60
117 117 116 118 # CA60-CA61
118 118 118 119 # CA61-SC61
119 119 118 120 # CA61-CA62
120 120 120 121 # CA62-SC62
121 121 120 122 # CA62-CA63
122 122 122 123 # CA63-CA64
123 123 123 124 # CA64-SC64
124 124 123 125 # CA64-CA65
125 125 125 126 # CA65-CA66
126 126 126 127 # CA66-SC66
127 127 126 128 # CA66-CA67
128 128 128 129 # CA67-SC67
129 129 128 130 # CA67-CA68
130 130 130 131 # CA68-SC68
131 131 130 132 # CA68-CA69
132 132 132 133 # CA69-SC69
133 133 132 134 # CA69-CA70
134 134 134 135 # CA70-SC70
135 135 134 136 # CA70-CA71
136 136 136 137 # CA71-SC71
137 137 136 138 # CA71-CA72
138 138 138 139 # CA72-SC72
139 139 138 140 # CA72-CA73
140 140 140 141 # CA73-SC73
141 141 140 142 # CA73-CA74
142 142 142 143 # CA74-SC74
143 143 142 144 # CA74-CA75
144 144 144 145 # CA75-SC75
145 145 144 146 # CA75-CA76
146 146 146 147 # CA76-SC76
147 147 146 148 # CA76-CA77
148 148 148 149 # CA77-SC77
149 149 148 150 # CA77-CA78
150 150 150 151 # CA78-SC78
151 151 150 152 # CA78-CA79
152 152 152 153 # CA79-SC79
153 153 152 154 # CA79-CA80
154 154 154 155 # CA80-SC80
155 155 154 156 # CA80-CA81
156 156 156 157 # CA81-SC81
157 157 156 158 # CA81-CA82
158 158 158 159 # CA82-SC82
159 159 158 160 # CA82-CA83
160 160 160 161 # CA83-CA84
161 161 161 162 # CA84-SC84
162 162 161 163 # CA84-CA85
163 163 163 164 # CA85-SC85
164 164 163 165 # CA85-CA86
165 165 165 166 # CA86-SC86
166 166 165 167 # CA86-CA87
167 167 167 168 # CA87-SC87
168 168 167 169 # CA87-CA88
169 169 169 170 # CA88-SC88
170 170 169 171 # CA88-CA89
171 171 171 172 # CA89-SC89
172 172 171 173 # CA89-CA90
173 173 173 174 # CA90-SC90
174 174 173 175 # CA90-CA91
175 175 175 176 # CA91-SC91
176 176 175 177 # CA91-CA92
177 177 177 178 # CA92-SC92
178 178 177 179 # CA92-CA93
179 179 179 180 # CA93-SC93
180 180 179 181 # CA93-CA94
181 181 181 182 # CA94-SC94
182 182 181 183 # CA94-CA95
183 183 183 184 # CA95-CA96
184 184 184 185 # CA96-SC96
185 185 131 166 # SC68-SC86

Angles

1 1 2 1 3 # SC1-CA1-CA2
2 2 1 3 4 # CA1-CA2-SC2
3 3 1 3 5 # CA1-CA2-CA3
4 4 4 3 5 # SC2-CA2-CA3
5 5 3 5 6 # CA2-CA3-SC3
6 6 3 5 7 # CA2-CA3-CA4
7 7 6 5 7 # SC3-CA3-CA4
8 8 5 7 8 # CA3-CA4-SC4
9 9 5 7 9 # CA3-CA4-CA5
10 10 8 7 9 # SC4-CA4-CA5
11 11 7 9 10 # CA4-CA5-CA6
12 12 9 10 11 # CA5-CA6-SC6
13 13 9 10 12 # CA5-CA6-CA7
14 14 11 10 12 # SC6-CA6-CA7
15 15 10 12 13 # CA6-CA7-SC7
16 16 10 12 14 # CA6-CA7-CA8
17 17 13 12 14 # SC7-CA7-CA8
18 18 12 14 15 # CA7-CA8-SC8
19 19 12 14 16 # CA7-CA8-CA9
20 20 15 14 16 # SC8-CA8-CA9
21 21 14 16 17 # CA8-CA9-SC9
22 22 14 16 18 # CA8-CA9-CA10
23 23 17 16 18 # SC9-CA9-CA10
24 24 16 18 19 # CA9-CA10-SC10
25 25 16 18 20 # CA9-CA10-CA11
26 26 19 18 20 # SC10-CA10-CA11
27 27 18 20 21 # CA10-CA11-SC11
28 28 18 20 22 # CA10-CA11-CA12
29 29 21 20 22 # SC11-CA11-CA12
30 30 20 22 23 # CA11-CA12-SC12
31 31 20 22 24 # CA11-CA12-CA13
32 32 23 22 24 # SC12-CA12-CA13
33 33 22 24 25 # CA12-CA13-SC13
34 34 22 24 26 # CA12-CA13-CA14
35 35 25 24 26 # SC13-CA13-CA14
36 36 24 26 27 # CA13-CA14-SC14
37 37 24 26 28 # CA13-CA14-CA15
38 38 27 26 28 # SC14-CA14-CA15
39 39 26 28 29 # CA14-CA15-SC15
40 40 26 28 30 # CA14-CA15-CA16
41 41 29 28 30 # SC15-CA15-CA16
42 42 28 30 31 # CA15-CA16-SC16
43 43 28 30 32 # CA15-CA16-CA17
44 44 31 30 32 # SC16-CA16-CA17
45 45 30 32 33 # CA16-CA17-SC17
46 46 30 32 34 # CA16-CA17-CA18
47 47 33 32 34 # SC17-CA17-CA18
48 48 32 34 35 # CA17-CA18-SC18
49 49 32 34 36 # CA17-CA18-CA19
50 50 35 34 36 # SC18-CA18-CA19
51 51 34 36 37 # CA18-CA19-SC19
52 52 34 36 38 # CA18-CA19-CA20
53 53 37 36 38 # SC19-CA19-CA20
54 54 36 38 39 # CA19-CA20-SC20
55 55 36 38 40 # CA19-CA20-CA21
56 56 39 38 40 # SC20-CA20-CA21
57 57 38 40 41 # CA20-CA21-SC21
58 58 38 40 42 # CA20-CA21-CA22
59 59 41 40 42 # SC21-CA21-CA22
60 60 40 42 43 # CA21-CA22-CA23
61 61 42 43 44 # CA22-CA23-SC23
62 62 42 43 45 # CA22-CA23-CA24
63 63 44 43 45 # SC23-CA23-CA24
64 64 43 45 46 # CA23-CA24-SC24
65 65 43 45 47 # CA23-CA24-CA25
66 66 46 45 47 # SC24-CA24-CA25
67 67 45 47 48 # CA24-CA25-SC25
68 68 45 47 49 # CA24-CA25-CA26
69 69 48 47 49 # SC25-CA25-CA26
70 70 47 49 50 # CA25-CA26-SC26
71 71 47 49 51 # CA25-CA26-CA27
72 72 50 49 51 # SC26-CA26-CA27
73 73 49 51 52 # CA26-CA27-SC27
74 74 49 51 53 # CA26-CA27-CA28
75 75 52 51 53 # SC27-CA27-CA28
76 76 51 53 54 # CA27-CA28-SC28
77 77 51 53 55 # CA27-CA28-CA29
78 78 54 53 55 # SC28-CA28-CA29
79 79 53 55 56 # CA28-CA29-SC29
80 80 53 55 57 # CA28-CA29-CA30
81 81 56 55 57 # SC29-CA29-CA30
82 82 55 57 58 # CA29-CA30-SC30
83 83 55 57 59 # CA29-CA30-CA31
84 84 58 57 59 # SC30-CA30-CA31
85 85 57 59 60 # CA30-CA31-SC31
86 86 57 59 61 # CA30-CA31-CA32
87 87 60 59 61 # SC31-CA31-CA32
88 88 59 61 62 # CA31-CA32-SC32
89 89 59 61 63 # CA31-CA32-CA33
90 90 62 61 63 # SC32-CA32-CA33
91 91 61 63 64 # CA32-CA33-SC33
92 92 61 63 65 # CA32-CA33-CA34
93 93 64 63 65 # SC33-CA33-CA34
94 94 63 65 66 # CA33-CA34-SC34
95 95 63 65 67 # CA33-CA34-CA35
96 96 66 65 67 # SC34-CA34-CA35
97 97 65 67 68 # CA34-CA35-SC35
98 98 65 67 69 # CA34-CA35-CA36
99 99 68 67 69 # SC35-CA35-CA36
100 100 67 69 70 # CA35-CA36-SC36
101 101 67 69 71 # CA35-CA36-CA37
102 102 70 69 71 # SC36-CA36-CA37
103 103 69 71 72 # CA36-CA37-SC37
104 104 69 71 73 # CA36-CA37-CA38
105 105 72 71 73 # SC37-CA37-CA38
106 106 71 73 74 # CA37-CA38-CA39
107 107 73 74 75 # CA38-CA39-SC39
108 108 73 74 76 # CA38-CA39-CA40
109 109 75 74 76 # SC39-CA39-CA40
110 110 74 76 77 # CA39-CA40-SC40
111 111 74 76 78 # CA39-CA40-CA41
112 112 77 76 78 # SC40-CA40-CA41
113 113 76 78 79 # CA40-CA41-SC41
114 114 76 78 80 # CA40-CA41-CA42
115 115 79 78 80 # SC41-CA41-CA42
116 116 78 80 81 # CA41-CA42-SC42
117 117 78 80 82 # CA41-CA42-CA43
118 118 81 80 82 # SC42-CA42-CA43
119 119 80 82 83 # CA42-CA43-SC43
120 120 80 82 84 # CA42-CA43-CA44
121 121 83 82 84 # SC43-CA43-CA44
122 122 82 84 85 # CA43-CA44-SC44
123 123 82 84 86 # CA43-CA44-CA45
124 124 85 84 86 # SC44-CA44-CA45
125 125 84 86 87 # CA44-CA45-SC45
126 126 84 86 88 # CA44-CA45-CA46
127 127 87 86 88 # SC45-CA45-CA46
128 128 86 88 89 # CA45-CA46-SC46
129 129 86 88 90 # CA45-CA46-CA47
130 130 89 88 90 # SC46-CA46-CA47
131 131 88 90 91 # CA46-CA47-SC47
132 132 88 90 92 # CA46-CA47-CA48
133 133 91 90 92 # SC47-CA47-CA48
134 134 90 92 93 # CA47-CA48-SC48
135 135 90 92 94 # CA47-CA48-CA49
136 136 93 92 94 # SC48-CA48-CA49
137 137 92 94 95 # CA48-CA49-SC49
138 138 92 94 96 # CA48-CA49-CA50
139 139 95 94 96 # SC49-CA49-CA50
140 140 94 96 97 # CA49-CA50-SC50
141 141 94 96 98 # CA49-CA50-CA51
142 142 97 96 98 # SC50-CA50-CA51
143 143 96 98 99 # CA50-CA51-SC51
144 144 96 98 100 # CA50-CA51-CA52
145 145 99 98 100 # SC51-CA51-CA52
146 146 98 100 101 # CA51-CA52-SC52
147 147 98 100 102 # CA51-CA52-CA53
148 148 101 100 102 # SC52-CA52-CA53
149 149 100 102 103 # CA52-CA53-SC53
150 150 100 102 104 # CA52-CA53-CA54
151 151 103 102 104 # SC53-CA53-CA54
152 152 102 104 105 # CA53-CA54-SC54
153 153 102 104 106 # CA53-CA54-CA55
154 154 105 104 106 # SC54-CA54-CA55
155 155 104 106 107 # CA54-CA55-SC55
156 156 104 106 108 # CA54-CA55-CA56
157 157 107 106 108 # SC55-CA55-CA56
158 158 106 108 109 # CA55-CA56-SC56
159 159 106 108 110 # CA55-CA56-CA57
160 160 109 108 110 # SC56-CA56-CA57
161 161 108 110 111 # CA56-CA57-SC57
162 162 108 110 112 # CA56-CA57-CA58
163 163 111 110 112 # SC57-CA57-CA58
164 164 110 112 113 # CA57-CA58-SC58
165 165 110 112 114 # CA57-CA58-CA59
166 166 113 112 114 # SC58-CA58-CA59
167 167 112 114 115 # CA58-CA59-SC59
168 168 112 114 116 # CA58-CA59-CA60
169 169 115 114 116 # SC59-CA59-CA60
170 170 114 116 117 # CA59-CA60-SC60
171 171 114 116 118 # CA59-CA60-CA61
172 172 117 116 118 # SC60-CA60-CA61
173 173 116 118 119 # CA60-CA61-SC61
174 174 116 118 120 # CA60-CA61-CA62
175 175 119 118 120 # SC61-CA61-CA62
176 176 118 120 121 # CA61-CA62-SC62
177 177 118 120 122 # CA61-CA62-CA63
178 178 121 120 122 # SC62-CA62-CA63
179 179 120 122 123 # CA62-CA63-CA64
180 180 122 123 124 # CA63-CA64-SC64
181 181 122 123 125 # CA63-CA64-CA65
182 182 124 123 125 # SC64-CA64-CA65
183 183 123 125 126 # CA64-CA65-CA66
184 184 125 126 127 # CA65-CA66-SC66
185 185 125 126 128 # CA65-CA66-CA67
186 186 127 126 128 # SC66-CA66-CA67
187 187 126 128 129 # CA66-CA67-SC67
188 188 126 128 130 # CA66-CA67-CA68
189 189 129 128 130 # SC67-CA67-CA68
190 190 128 130 131 # CA67-CA68-SC68
191 191 128 130 132 # CA67-CA68-CA69
192 192 131 130 132 # SC68-CA68-CA69
193 193 130 132 133 # CA68-CA69-SC69
194 194 130 132 134 # CA68-CA69-CA70
195 195 133 132 134 # SC69-CA69-CA70
196 196 132 134 135 # CA69-CA70-SC70
197 197 132 134 136 # CA69-CA70-CA71
198 198 135 134 136 # SC70-CA70-CA71
199 199 134 136 137 # CA70-CA71-SC71
200 200 134 136 138 # CA70-CA71-CA72
201 201 137 136 138 # SC71-CA71-CA72
202 202 136 138 139 # CA71-CA72-SC72
203 203 136 138 140 # CA71-CA72-CA73
204 204 139 138 140 # SC72-CA72-CA73
205 205 138 140 141 # CA72-CA73-SC73
206 206 138 140 142 # CA72-CA73-CA74
207 207 141 140 142 # SC73-CA73-CA74
208 208 140 142 143 # CA73-CA74-SC74
209 209 140 142 144 # CA73-CA74-CA75
210 210 143 142 144 # SC74-CA74-CA75
211 211 142 144 145 # CA74-CA75-SC75
212 212 142 144 146 # CA74-CA75-CA76
213 213 145 144 146 # SC75-CA75-CA76
214 214 144 146 147 # CA75-CA76-SC76
215 215 144 146 148 # CA75-CA76-CA77
216 216 147 146 148 # SC76-CA76-CA77
217 217 146 148 149 # CA76-CA77-SC77
218 218 146 148 150 # CA76-CA77-CA78
219 219 149 148 150 # SC77-CA77-CA78
220 220 148 150 151 # CA77-CA78-SC78
221 221 148 150 152 # CA77-CA78-CA79
222 222 151 150 152 # SC78-CA78-CA79
223 223 150 152 153 # CA78-CA79-SC79
224 224 150 152 154 # CA78-CA79-CA80
225 225 153 152 154 # SC79-CA79-CA80
226 226 152 154 155 # CA79-CA80-SC80
227 227 152 154 156 # CA79-CA80-CA81
228 228 155 154 156 # SC80-CA80-CA81
229 229 154 156 157 # CA80-CA81-SC81
230 230 154 156 158 # CA80-CA81-CA82
231 231 157 156 158 # SC81-CA81-CA82
232 232 156 158 159 # CA81-CA82-SC82
233 233 156 158 160 # CA81-CA82-CA83
234 234 159 158 160 # SC82-CA82-CA83
235 235 158 160 161 # CA82-CA83-CA84
236 236 160 161 162 # CA83-CA84-SC84
237 237 160 161 163 # CA83-CA84-CA85
238 238 162 161 163 # SC84-CA84-CA85
239 239 161 163 164 # CA84-CA85-SC85
240 240 161 163 165 # CA84-CA85-CA86
241 241 164 163 165 # SC85-CA85-CA86
242 242 163 165 166 # CA85-CA86-SC86
243 243 163 165 167 # CA85-CA86-CA87
244 244 166 165 167 # SC86-CA86-CA87
245 245 165 167 168 # CA86-CA87-SC87
246 246 165 167 169 # CA86-CA87-CA88
247 247 168 167 169 # SC87-CA87-CA88
248 248 167 169 170 # CA87-CA88-SC88
249 249 167 169 171 # CA87-CA88-CA89
250 250 170 169 171 # SC88-CA88-CA89
251 251 169 171 172 # CA88-CA89-SC89
252 252 169 171 173 # CA88-CA89-CA90
253 253 172 171 173 # SC89-CA89-CA90
254 254 171 173 174 # CA89-CA90-SC90
255 255 171 173 175 # CA89-CA90-CA91
256 256 174 173 175 # SC90-CA90-CA91
257 257 173 175 176 # CA90-CA91-SC91
258 258 173 175 177 # CA90-CA91-CA92
259 259 176 175 177 # SC91-CA91-CA92
260 260 175 177 178 # CA91-CA92-SC92
261 261 175 177 179 # CA91-CA92-CA93
262 262 178 177 179 # SC92-CA92-CA93
263 263 177 179 180 # CA92-CA93-SC93
264 264 177 179 181 # CA92-CA93-CA94
265 265 180 179 181 # SC93-CA93-CA94
266 266 179 181 182 # CA93-CA94-SC94
267 267 179 181 183 # CA93-CA94-CA95
268 268 182 181 183 # SC94-CA94-CA95
269 269 181 183 184 # CA94-CA95-CA96
270 270 183 184 185 # CA95-CA96-SC96

Dihedrals

1 1 33 32 34 35 # SC17-CA17-CA18-SC18-n1
2 2 33 32 34 35 # SC17-CA17-CA18-SC18-n3
3 3 33 32 34 36 # SC17-CA17-CA18-CA19-n1
4 4 33 32 34 36 # SC17-CA17-CA18-CA19-n3
5 5 32 34 36 37 # CA17-CA18-CA19-SC19-n1
6 6 32 34 36 37 # CA17-CA18-CA19-SC19-n3
7 7 32 34 36 38 # CA17-CA18-CA19-CA20-n1
8 8 32 34 36 38 # CA17-CA18-CA19-CA20-n3
9 9 35 34 36 37 # SC18-CA18-CA19-SC19-n1
10 10 35 34 36 37 # SC18-CA18-CA19-SC19-n3
11 11 35 34 36 38 # SC18-CA18-CA19-CA20-n1
12 12 35 34 36 38 # SC18-CA18-CA19-CA20-n3
13 13 34 36 38 39 # CA18-CA19-CA20-SC20-n1
14 14 34 36 38 39 # CA18-CA19-CA20-SC20-n3
15 15 34 36 38 40 # CA18-CA19-CA20-CA21-n1
16 16 34 36 38 40 # CA18-CA19-CA20-CA21-n3
17 17 37 36 38 39 # SC19-CA19-CA20-SC20-n1
18 18 37 36 38 39 # SC19-CA19-CA20-SC20-n3
19 19 37 36 38 40 # SC19-CA19-CA20-CA21-n1
20 20 37 36 38 40 # SC19-CA19-CA20-CA21-n3
21 21 36 38 40 41 # CA19-CA20-CA21-SC21-n1
22 22 36 38 40 41 # CA19-CA20-CA21-SC21-n3
23 23 36 38 40 42 # CA19-CA20-CA21-CA22-n1
24 24 36 38 40 42 # CA19-CA20-CA21-CA22-n3
25 25 39 38 40 41 # SC20-CA20-CA21-SC21-n1
26 26 39 38 40 41 # SC20-CA20-CA21-SC21-n3
27 27 39 38 40 42 # SC20-CA20-CA21-CA22-n1
28 28 39 38 40 42 # SC20-CA20-CA21-CA22-n3
29 29 38 40 42 43 # CA20-CA21-CA22-CA23-n1
30 30 38 40 42 43 # CA20-CA21-CA22-CA23-n3
31 31 41 40 42 43 # SC21-CA21-CA22-CA23-n1
32 32 41 40 42 43 # SC21-CA21-CA22-CA23-n3
33 33 40 42 43 44 # CA21-CA22-CA23-SC23-n1
34 34 40 42 43 44 # CA21-CA22-CA23-SC23-n3
35 35 40 42 43 45 # CA21-CA22-CA23-CA24-n1
36 36 40 42 43 45 # CA21-CA22-CA23-CA24-n3
37 37 42 43 45 46 # CA22-CA23-CA24-SC24-n1
38 38 42 43 45 46 # CA22-CA23-CA24-SC24-n3
39 39 42 43 45 47 # CA22-CA23-CA24-CA25-n1
40 40 42 43 45 47 # CA22-CA23-CA24-CA25-n3
41 41 44 43 45 46 # SC23-CA23-CA24-SC24-n1
42 42 44 43 45 46 # SC23-CA23-CA24-SC24-n3
43 43 44 43 45 47 # SC23-CA23-CA24-CA25-n1
44 44 44 43 45 47 # SC23-CA23-CA24-CA25-n3
45 45 43 45 47 48 # CA23-CA24-CA25-SC25-n1
46 46 43 45 47 48 # CA23-CA24-CA25-SC25-n3
47 47 43 45 47 49 # CA23-CA24-CA25-CA26-n1
48 48 43 45 47 49 # CA23-CA24-CA25-CA26-n3
49 49 46 45 47 48 # SC24-CA24-CA25-SC25-n1
50 50 46 45 47 48 # SC24-CA24-CA25-SC25-n3
51 51 46 45 47 49 # SC24-CA24-CA25-CA26-n1
52 52 46 45 47 49 # SC24-CA24-CA25-CA26-n3
53 53 45 47 49 50 # CA24-CA25-CA26-SC26-n1
54 54 45 47 49 50 # CA24-CA25-CA26-SC26-n3
55 55 45 47 49 51 # CA24-CA25-CA26-CA27-n1
56 56 45 47 49 51 # CA24-CA25-CA26-CA27-n3
57 57 48 47 49 50 # SC25-CA25-CA26-SC26-n1
58 58 48 47 49 50 # SC25-CA25-CA26-SC26-n3
59 59 48 47 49 51 # SC25-CA25-CA26-CA27-n1
60 60 48 47 49 51 # SC25-CA25-CA26-CA27-n3
61 61 47 49 51 52 # CA25-CA26-CA27-SC27-n1
62 62 47 49 51 52 # CA25-CA26-CA27-SC27-n3
63 63 47 49 51 53 # CA25-CA26-CA27-CA28-n1
64 64 47 49 51 53 # CA25-CA26-CA27-CA28-n3
65 65 50 49 51 52 # SC26-CA26-CA27-SC27-n1
66 66 50 49 51 52 # SC26-CA26-CA27-SC27-n3
67 67 50 49 51 53 # SC26-CA26-CA27-CA28-n1
68 68 50 49 51 53 # SC26-CA26-CA27-CA28-n3
69 69 49 51 53 54 # CA26-CA27-CA28-SC28-n1
70 70 49 51 53 54 # CA26-CA27-CA28-SC28-n3
71 71 49 51 53 55 # CA26-CA27-CA28-CA29-n1
72 72 49 51 53 55 # CA26-CA27-CA28-CA29-n3
73 73 52 51 53 54 # SC27-CA27-CA28-SC28-n1
74 74 52 51 53 54 # SC27-CA27-CA28-SC28-n3
75 75 52 51 53 55 # SC27-CA27-CA28-CA29-n1
76 76 52 51 53 55 # SC27-CA27-CA28-CA29-n3
77 77 51 53 55 56 # CA27-CA28-CA29-SC29-n1
78 78 51 53 55 56 # CA27-CA28-CA29-SC29-n3
79 79 51 53 55 57 # CA27-CA28-CA29-CA30-n1
80 80 51 53 55 57 # CA27-CA28-CA29-CA30-n3
81 81 54 53 55 56 # SC28-CA28-CA29-SC29-n1
82 82 54 53 55 56 # SC28-CA28-CA29-SC29-n3
83 83 54 53 55 57 # SC28-CA28-CA29-CA30-n1
84 84 54 53 55 57 # SC28-CA28-CA29-CA30-n3
85 85 53 55 57 58 # CA28-CA29-CA30-SC30-n1
86 86 53 55 57 58 # CA28-CA29-CA30-SC30-n3
87 87 53 55 57 59 # CA28-CA29-CA30-CA31-n1
88 88 53 55 57 59 # CA28-CA29-CA30-CA31-n3
89 89 56 55 57 58 # SC29-CA29-CA30-SC30-n1
90 90 56 55 57 58 # SC29-CA29-CA30-SC30-n3
91 91 56 55 57 59 # SC29-CA29-CA30-CA31-n1
92 92 56 55 57 59 # SC29-CA29-CA30-CA31-n3
93 93 55 57 59 60 # CA29-CA30-CA31-SC31-n1
94 94 55 57 59 60 # CA29-CA30-CA31-SC31-n3
95 95 55 57 59 61 # CA29-CA30-CA31-CA32-n1
96 96 55 57 59 61 # CA29-CA30-CA31-CA32-n3
97 97 58 57 59 60 # SC30-CA30-CA31-SC31-n1
98 98 58 57 59 60 # SC30-CA30-CA31-SC31-n3
99 99 58 57 59 61 # SC30-CA30-CA31-CA32-n1
100 100 58 57 59 61 # SC30-CA30-CA31-CA32-n3
101 101 57 59 61 62 # CA30-CA31-CA32-SC32-n1
102 102 57 59 61 62 # CA30-CA31-CA32-SC32-n3
103 103 57 59 61 63 # CA30-CA31-CA32-CA33-n1
104 104 57 59 61 63 # CA30-CA31-CA32-CA33-n3
105 105 60 59 61 62 # SC31-CA31-CA32-SC32-n1
106 106 60 59 61 62 # SC31-CA31-CA32-SC32-n3
107 107 60 59 61 63 # SC31-CA31-CA32-CA33-n1
108 108 60 59 61 63 # SC31-CA31-CA32-CA33-n3
109 109 59 61 63 64 # CA31-CA32-CA33-SC33-n1
110 110 59 61 63 64 # CA31-CA32-CA33-SC33-n3
111 111 59 61 63 65 # CA31-CA32-CA33-CA34-n1
112 112 59 61 63 65 # CA31-CA32-CA33-CA34-n3
113 113 62 61 63 64 # SC32-CA32-CA33-SC33-n1
114 114 62 61 63 64 # SC32-CA32-CA33-SC33-n3
115 115 62 61 63 65 # SC32-CA32-CA33-CA34-n1
116 116 62 61 63 65 # SC32-CA32-CA33-CA34-n3
117 117 61 63 65 66 # CA32-CA33-CA34-SC34-n1
118 118 61 63 65 66 # CA32-CA33-CA34-SC34-n3
119 119 61 63 65 67 # CA32-CA33-CA34-CA35-n1
120 120 61 63 65 67 # CA32-CA33-CA34-CA35-n3
121 121 64 63 65 66 # SC33-CA33-CA34-SC34-n1
122 122 64 63 65 66 # SC33-CA33-CA34-SC34-n3
123 123 64 63 65 67 # SC33-CA33-CA34-CA35-n1
124 124 64 63 65 67 # SC33-CA33-CA34-CA35-n3
125 125 63 65 67 68 # CA33-CA34-CA35-SC35-n1
126 126 63 65 67 68 # CA33-CA34-CA35-SC35-n3
127 127 63 65 67 69 # CA33-CA34-CA35-CA36-n1
128 128 63 65 67 69 # CA33-CA34-CA35-CA36-n3
129 129 66 65 67 68 # SC34-CA34-CA35-SC35-n1
130 130 66 65 67 68 # SC34-CA34-CA35-SC35-n3
131 131 66 65 67 69 # SC34-CA34-CA35-CA36-n1
132 132 66 65 67 69 # SC34-CA34-CA35-CA36-n3
133 133 65 67 69 70 # CA34-CA35-CA36-SC36-n1
134 134 65 67 69 70 # CA34-CA35-CA36-SC36-n3
135 135 65 67 69 71 # CA34-CA35-CA36-CA37-n1
136 136 65 67 69 71 # CA34-CA35-CA36-CA37-n3
137 137 68 67 69 70 # SC35-CA35-CA36-SC36-n1
138 138 68 67 69 70 # SC35-CA35-CA36-SC36-n3
139 139 68 67 69 71 # SC35-CA35-CA36-CA37-n1
140 140 68 67 69 71 # SC35-CA35-CA36-CA37-n3
141 141 67 69 71 72 # CA35-CA36-CA37-SC37-n1
142 142 67 69 71 72 # CA35-CA36-CA37-SC37-n3
143 143 67 69 71 73 # CA35-CA36-CA37-CA38-n1
144 144 67 69 71 73 # CA35-CA36-CA37-CA38-n3