LAMMPS (10 Feb 2016)
# set logfile
log		log.wall0.236-124
